 Entering Gaussian System, Link 0=/opt/QChem/g09/g09.exe
 Input=0_ph.com
 Output=0_ph.log
 Initial command:
 /opt/QChem/g09/l1.exe "/store/users/student/gaussian.uLaqiF/Gau-23242.inp" -scrdir="/store/users/student/gaussian.uLaqiF/"
 Entering Link 1 = /opt/QChem/g09/l1.exe PID=     23264.
  
 Copyright (c) 1988,1990,1992,1993,1995,1998,2003,2009,2013,
            Gaussian, Inc.  All Rights Reserved.
  
 This is part of the Gaussian(R) 09 program.  It is based on
 the Gaussian(R) 03 system (copyright 2003, Gaussian, Inc.),
 the Gaussian(R) 98 system (copyright 1998, Gaussian, Inc.),
 the Gaussian(R) 94 system (copyright 1995, Gaussian, Inc.),
 the Gaussian 92(TM) system (copyright 1992, Gaussian, Inc.),
 the Gaussian 90(TM) system (copyright 1990, Gaussian, Inc.),
 the Gaussian 88(TM) system (copyright 1988, Gaussian, Inc.),
 the Gaussian 86(TM) system (copyright 1986, Carnegie Mellon
 University), and the Gaussian 82(TM) system (copyright 1983,
 Carnegie Mellon University). Gaussian is a federally registered
 trademark of Gaussian, Inc.
  
 This software contains proprietary and confidential information,
 including trade secrets, belonging to Gaussian, Inc.
  
 This software is provided under written license and may be
 used, copied, transmitted, or stored only in accord with that
 written license.
  
 The following legend is applicable only to US Government
 contracts under FAR:
  
                    RESTRICTED RIGHTS LEGEND
  
 Use, reproduction and disclosure by the US Government is
 subject to restrictions as set forth in subparagraphs (a)
 and (c) of the Commercial Computer Software - Restricted
 Rights clause in FAR 52.227-19.
  
 Gaussian, Inc.
 340 Quinnipiac St., Bldg. 40, Wallingford CT 06492
  
  
 ---------------------------------------------------------------
 Warning -- This program may not be used in any manner that
 competes with the business of Gaussian, Inc. or will provide
 assistance to any competitor of Gaussian, Inc.  The licensee
 of this program is prohibited from giving any competitor of
 Gaussian, Inc. access to this program.  By using this program,
 the user acknowledges that Gaussian, Inc. is engaged in the
 business of creating and licensing software in the field of
 computational chemistry and represents and warrants to the
 licensee that it is not a competitor of Gaussian, Inc. and that
 it will not use this program in any manner prohibited above.
 ---------------------------------------------------------------
  

 Cite this work as:
 Gaussian 09, Revision D.01,
 M. J. Frisch, G. W. Trucks, H. B. Schlegel, G. E. Scuseria, 
 M. A. Robb, J. R. Cheeseman, G. Scalmani, V. Barone, B. Mennucci, 
 G. A. Petersson, H. Nakatsuji, M. Caricato, X. Li, H. P. Hratchian, 
 A. F. Izmaylov, J. Bloino, G. Zheng, J. L. Sonnenberg, M. Hada, 
 M. Ehara, K. Toyota, R. Fukuda, J. Hasegawa, M. Ishida, T. Nakajima, 
 Y. Honda, O. Kitao, H. Nakai, T. Vreven, J. A. Montgomery, Jr., 
 J. E. Peralta, F. Ogliaro, M. Bearpark, J. J. Heyd, E. Brothers, 
 K. N. Kudin, V. N. Staroverov, T. Keith, R. Kobayashi, J. Normand, 
 K. Raghavachari, A. Rendell, J. C. Burant, S. S. Iyengar, J. Tomasi, 
 M. Cossi, N. Rega, J. M. Millam, M. Klene, J. E. Knox, J. B. Cross, 
 V. Bakken, C. Adamo, J. Jaramillo, R. Gomperts, R. E. Stratmann, 
 O. Yazyev, A. J. Austin, R. Cammi, C. Pomelli, J. W. Ochterski, 
 R. L. Martin, K. Morokuma, V. G. Zakrzewski, G. A. Voth, 
 P. Salvador, J. J. Dannenberg, S. Dapprich, A. D. Daniels, 
 O. Farkas, J. B. Foresman, J. V. Ortiz, J. Cioslowski, 
 and D. J. Fox, Gaussian, Inc., Wallingford CT, 2013.
 
 ******************************************
 Gaussian 09:  AS64L-G09RevD.01 24-Apr-2013
                 7-Jan-2021 
 ******************************************
 %chk=0_ph.chk
 %nproc=8
 Will use up to    8 processors via shared memory.
 %mem=6000MB
 ----------------------------------------------------------------------
 #p b3lyp/6-31++g** geom=AllCheckpoint scrf(cpcm,solvent=water) scf=tig
 ht td=(singlet, nstates=10)
 ----------------------------------------------------------------------
 1/29=7,38=1/1;
 2/12=2,40=1/2;
 3/5=1,6=6,7=1111,11=9,14=-4,16=1,25=1,30=1,70=2101,72=1,74=-5/1,2,8,3;
 4//1;
 5/5=2,32=2,38=5,53=1/2;
 8/6=1,10=2,108=10/1;
 9/41=10,42=1,48=1,70=2/14;
 6/7=2,8=2,9=2,10=2/1;
 99/5=1,9=1/99;
 Leave Link    1 at Thu Jan  7 10:07:14 2021, MaxMem=   786432000 cpu:         8.1
 (Enter /opt/QChem/g09/l101.exe)
 Structure from the checkpoint file:  "0_ph.chk"
 --------------------------------------
 Phenolphthalein in water pH0 structure
 --------------------------------------
 Charge =  1 Multiplicity = 1
 Redundant internal coordinates found in file.
 C,0,-0.4335433826,0.7342282849,0.0306488622
 C,0,0.2977150633,1.9343667801,0.3225491521
 C,0,-0.217269755,3.2220356323,0.000603775
 C,0,1.5911421243,1.869083225,0.9172226997
 C,0,0.502053147,4.3698329976,0.2689102879
 H,0,-1.158866452,3.3065782211,-0.528416454
 C,0,2.3036031021,3.0128199157,1.213471245
 H,0,2.0071624781,0.9060580096,1.1896403376
 C,0,1.7635847004,4.2729472448,0.8893864244
 H,0,0.1098602364,5.3415379035,-0.0149552732
 H,0,3.272865389,2.9605197318,1.6966779911
 C,0,-1.8637150056,0.6823018895,-0.000297589
 C,0,-2.6739833315,1.5939253139,0.7408671618
 C,0,-2.527856596,-0.3192705362,-0.7671293246
 C,0,-4.0501909962,1.5259785879,0.697194289
 H,0,-2.2053691943,2.3122191275,1.4025679237
 C,0,-3.904645585,-0.3753734786,-0.8372722922
 H,0,-1.9421799062,-1.0233843947,-1.3466243126
 C,0,-4.6761772858,0.5519992048,-0.1070548592
 H,0,-4.6639130702,2.1982985487,1.2862625558
 H,0,-4.3935301266,-1.1244123533,-1.4522934411
 C,0,0.3161955775,-0.5326051892,-0.1555899849
 C,0,1.3387563802,-0.7003743814,-1.1246387289
 C,0,0.0502232522,-1.5853476162,0.7359224629
 C,0,2.0831693909,-1.8849665993,-1.1499386926
 C,0,0.8036474031,-2.7610255369,0.7033007586
 H,0,-0.723211987,-1.4618252185,1.4863424245
 C,0,1.8236440438,-2.9097503514,-0.2360969746
 H,0,2.8481425763,-2.0134734577,-1.9064970026
 H,0,0.5901762717,-3.5539801864,1.4125580819
 H,0,2.407668161,-3.8234524165,-0.2714956588
 O,0,2.5090108462,5.353092219,1.1859099965
 H,0,2.0576081726,6.1741828369,0.9344762429
 O,0,-6.0196978788,0.5479667487,-0.1245026955
 H,0,-6.3665621032,-0.156949365,-0.6940406621
 C,0,1.5269807493,0.309185176,-2.2069111897
 O,0,0.664147599,1.0866627219,-2.5799616343
 O,0,2.7512812784,0.2594533627,-2.7658982484
 H,0,2.7791322531,0.9039685174,-3.4950750643
 Recover connectivity data from disk.
 NAtoms=     39 NQM=       39 NQMF=       0 NMMI=      0 NMMIF=      0
                NMic=       0 NMicF=      0.
                    Isotopes and Nuclear Properties:
 (Nuclear quadrupole moments (NQMom) in fm**2, nuclear magnetic moments (NMagM)
  in nuclear magnetons)

  Atom         1           2           3           4           5           6           7           8           9          10
 IAtWgt=          12          12          12          12          12           1          12           1          12           1
 AtmWgt=  12.0000000  12.0000000  12.0000000  12.0000000  12.0000000   1.0078250  12.0000000   1.0078250  12.0000000   1.0078250
 NucSpn=           0           0           0           0           0           1           0           1           0           1
 AtZEff=  -3.6000000  -3.6000000  -3.6000000  -3.6000000  -3.6000000  -1.0000000  -3.6000000  -1.0000000  -3.6000000  -1.0000000
 NQMom=    0.0000000   0.0000000   0.0000000   0.0000000   0.0000000   0.0000000   0.0000000   0.0000000   0.0000000   0.0000000
 NMagM=    0.0000000   0.0000000   0.0000000   0.0000000   0.0000000   2.7928460   0.0000000   2.7928460   0.0000000   2.7928460
 AtZNuc=   6.0000000   6.0000000   6.0000000   6.0000000   6.0000000   1.0000000   6.0000000   1.0000000   6.0000000   1.0000000

  Atom        11          12          13          14          15          16          17          18          19          20
 IAtWgt=           1          12          12          12          12           1          12           1          12           1
 AtmWgt=   1.0078250  12.0000000  12.0000000  12.0000000  12.0000000   1.0078250  12.0000000   1.0078250  12.0000000   1.0078250
 NucSpn=           1           0           0           0           0           1           0           1           0           1
 AtZEff=  -1.0000000  -3.6000000  -3.6000000  -3.6000000  -3.6000000  -1.0000000  -3.6000000  -1.0000000  -3.6000000  -1.0000000
 NQMom=    0.0000000   0.0000000   0.0000000   0.0000000   0.0000000   0.0000000   0.0000000   0.0000000   0.0000000   0.0000000
 NMagM=    2.7928460   0.0000000   0.0000000   0.0000000   0.0000000   2.7928460   0.0000000   2.7928460   0.0000000   2.7928460
 AtZNuc=   1.0000000   6.0000000   6.0000000   6.0000000   6.0000000   1.0000000   6.0000000   1.0000000   6.0000000   1.0000000

  Atom        21          22          23          24          25          26          27          28          29          30
 IAtWgt=           1          12          12          12          12          12           1          12           1           1
 AtmWgt=   1.0078250  12.0000000  12.0000000  12.0000000  12.0000000  12.0000000   1.0078250  12.0000000   1.0078250   1.0078250
 NucSpn=           1           0           0           0           0           0           1           0           1           1
 AtZEff=  -1.0000000  -3.6000000  -3.6000000  -3.6000000  -3.6000000  -3.6000000  -1.0000000  -3.6000000  -1.0000000  -1.0000000
 NQMom=    0.0000000   0.0000000   0.0000000   0.0000000   0.0000000   0.0000000   0.0000000   0.0000000   0.0000000   0.0000000
 NMagM=    2.7928460   0.0000000   0.0000000   0.0000000   0.0000000   0.0000000   2.7928460   0.0000000   2.7928460   2.7928460
 AtZNuc=   1.0000000   6.0000000   6.0000000   6.0000000   6.0000000   6.0000000   1.0000000   6.0000000   1.0000000   1.0000000

  Atom        31          32          33          34          35          36          37          38          39
 IAtWgt=           1          16           1          16           1          12          16          16           1
 AtmWgt=   1.0078250  15.9949146   1.0078250  15.9949146   1.0078250  12.0000000  15.9949146  15.9949146   1.0078250
 NucSpn=           1           0           1           0           1           0           0           0           1
 AtZEff=  -1.0000000  -5.6000000  -1.0000000  -5.6000000  -1.0000000  -3.6000000  -5.6000000  -5.6000000  -1.0000000
 NQMom=    0.0000000   0.0000000   0.0000000   0.0000000   0.0000000   0.0000000   0.0000000   0.0000000   0.0000000
 NMagM=    2.7928460   0.0000000   2.7928460   0.0000000   2.7928460   0.0000000   0.0000000   0.0000000   2.7928460
 AtZNuc=   1.0000000   8.0000000   1.0000000   8.0000000   1.0000000   6.0000000   8.0000000   8.0000000   1.0000000
 Leave Link  101 at Thu Jan  7 10:07:16 2021, MaxMem=   786432000 cpu:         5.2
 (Enter /opt/QChem/g09/l202.exe)
                          Input orientation:                          
 ---------------------------------------------------------------------
 Center     Atomic      Atomic             Coordinates (Angstroms)
 Number     Number       Type             X           Y           Z
 ---------------------------------------------------------------------
      1          6           0       -0.433543    0.734228    0.030649
      2          6           0        0.297715    1.934367    0.322549
      3          6           0       -0.217270    3.222036    0.000604
      4          6           0        1.591142    1.869083    0.917223
      5          6           0        0.502053    4.369833    0.268910
      6          1           0       -1.158866    3.306578   -0.528416
      7          6           0        2.303603    3.012820    1.213471
      8          1           0        2.007162    0.906058    1.189640
      9          6           0        1.763585    4.272947    0.889386
     10          1           0        0.109860    5.341538   -0.014955
     11          1           0        3.272865    2.960520    1.696678
     12          6           0       -1.863715    0.682302   -0.000298
     13          6           0       -2.673983    1.593925    0.740867
     14          6           0       -2.527857   -0.319271   -0.767129
     15          6           0       -4.050191    1.525979    0.697194
     16          1           0       -2.205369    2.312219    1.402568
     17          6           0       -3.904646   -0.375373   -0.837272
     18          1           0       -1.942180   -1.023384   -1.346624
     19          6           0       -4.676177    0.551999   -0.107055
     20          1           0       -4.663913    2.198299    1.286263
     21          1           0       -4.393530   -1.124412   -1.452293
     22          6           0        0.316196   -0.532605   -0.155590
     23          6           0        1.338756   -0.700374   -1.124639
     24          6           0        0.050223   -1.585348    0.735922
     25          6           0        2.083169   -1.884967   -1.149939
     26          6           0        0.803647   -2.761026    0.703301
     27          1           0       -0.723212   -1.461825    1.486342
     28          6           0        1.823644   -2.909750   -0.236097
     29          1           0        2.848143   -2.013473   -1.906497
     30          1           0        0.590176   -3.553980    1.412558
     31          1           0        2.407668   -3.823452   -0.271496
     32          8           0        2.509011    5.353092    1.185910
     33          1           0        2.057608    6.174183    0.934476
     34          8           0       -6.019698    0.547967   -0.124503
     35          1           0       -6.366562   -0.156949   -0.694041
     36          6           0        1.526981    0.309185   -2.206911
     37          8           0        0.664148    1.086663   -2.579962
     38          8           0        2.751281    0.259453   -2.765898
     39          1           0        2.779132    0.903969   -3.495075
 ---------------------------------------------------------------------
                    Distance matrix (angstroms):
                    1          2          3          4          5
     1  C    0.000000
     2  C    1.435367   0.000000
     3  C    2.497371   1.423710   0.000000
     4  C    2.484605   1.425080   2.437422   0.000000
     5  C    3.761613   2.444612   1.380888   2.803600   0.000000
     6  H    2.730500   2.174566   1.083335   3.423275   2.127180
     7  C    3.752735   2.445484   2.805284   1.379673   2.445253
     8  H    2.707366   2.175196   3.424275   1.083837   3.887266
     9  C    4.252921   2.817630   2.412081   2.410202   1.409198
    10  H    4.639469   3.428996   2.144655   3.888585   1.085636
    11  H    4.633518   3.434056   3.889229   2.151041   3.420831
    12  C    1.431449   2.518666   3.026719   3.766475   4.389444
    13  C    2.502611   3.020245   3.038778   4.277629   4.244480
    14  C    2.476380   3.774935   4.297566   4.959041   5.678153
    15  C    3.761820   4.383084   4.248898   5.656039   5.384595
    16  H    2.740727   2.752207   2.597270   3.852976   3.584563
    17  C    3.746072   4.933551   5.219208   6.190276   6.569598
    18  H    2.694822   4.068361   4.776393   5.096640   6.137672
    19  C    4.248778   5.180261   5.198321   6.485611   6.444476
    20  H    4.649311   5.061241   4.740632   6.274575   5.695417
    21  H    4.619000   5.874860   6.200296   7.098727   7.557513
    22  C    1.483799   2.512948   3.795564   2.923102   4.924291
    23  C    2.556134   3.181192   4.367229   3.291657   5.324383
    24  C    2.472220   3.552537   4.870645   3.786871   5.990528
    25  C    3.819399   4.465801   5.718150   4.313715   6.605723
    26  C    3.768276   4.737895   6.110080   4.701470   7.150440
    27  H    2.650585   3.732402   4.939833   4.095740   6.082076
    28  C    4.294721   5.109405   6.466851   4.921530   7.415792
    29  H    4.698070   5.201804   6.359587   4.962629   7.140247
    30  H    4.620217   5.603178   6.968499   5.536868   8.006404
    31  H    5.379240   6.160947   7.523512   5.872370   8.429314
    32  O    5.597067   4.162079   3.657726   3.612893   2.415692
    33  H    6.051103   4.631168   3.842182   4.330332   2.473542
    34  O    5.591412   6.483183   6.390185   7.794577   7.569324
    35  H    6.043185   7.058303   7.050806   8.368156   8.282325
    36  C    3.005161   3.248150   4.049720   3.492508   4.865083
    37  O    2.853843   3.045890   3.463529   3.701594   4.349891
    38  O    4.264879   4.285304   5.024214   4.183564   5.582500
    39  H    4.772926   4.668341   5.154768   4.670240   5.600437
                    6          7          8          9         10
     6  H    0.000000
     7  C    3.887051   0.000000
     8  H    4.328736   2.127649   0.000000
     9  C    3.388916   1.408748   3.389015   0.000000
    10  H    2.452421   3.427020   4.972352   2.166685   0.000000
    11  H    4.971021   1.084294   2.465746   2.156876   4.313182
    12  C    2.768131   4.926570   4.055824   5.180886   5.060009
    13  C    2.615309   5.197402   4.752650   5.185675   4.729234
    14  C    3.883027   6.194240   5.088887   6.499921   6.290315
    15  C    3.610044   6.545834   6.108874   6.432944   5.689611
    16  H    2.410937   4.566994   4.446128   4.456501   4.067731
    17  C    4.603419   7.363950   6.379649   7.531074   7.033885
    18  H    4.475670   6.393098   5.074711   6.839851   6.818830
    19  C    4.487396   7.517763   6.817170   7.503925   6.771582
    20  H    4.099597   7.015342   6.795769   6.765678   5.861914
    21  H    5.563297   8.311112   7.216058   8.516162   8.009680
    22  C    4.129665   4.288841   2.595913   5.126426   5.879448
    23  C    4.759125   4.492828   2.895389   5.382444   6.264686
    24  C    5.195324   5.142851   3.200402   6.105635   6.967720
    25  C    6.152172   5.442666   3.642695   6.494681   7.576576
    26  C    6.494952   5.987273   3.890048   7.101611   8.163870
    27  H    5.194874   5.409114   3.626272   6.279182   7.016670
    28  C    6.900983   6.116245   4.077597   7.270589   8.430286
    29  H    6.801336   5.940905   4.337854   6.965078   8.072937
    30  H    7.341239   6.789575   4.685028   7.931670   9.022125
    31  H    7.976435   6.996469   4.966245   8.204522   9.452131
    32  O    4.536569   2.349431   4.475263   1.345474   2.682934
    33  H    4.550705   3.183169   5.274542   1.924365   2.321301
    34  O    5.603639   8.783110   8.141602   8.688092   7.782147
    35  H    6.256481   9.426442   8.648555   9.393110   8.522826
    36  C    4.360675   4.428521   3.481866   5.035320   5.668992
    37  O    3.529907   4.559389   4.005772   4.837101   4.999045
    38  O    5.438800   4.859714   4.076530   5.517679   6.353926
    39  H    5.484654   5.181099   4.747894   5.621820   6.239252
                   11         12         13         14         15
    11  H    0.000000
    12  C    5.869792   0.000000
    13  C    6.176258   1.427206   0.000000
    14  C    7.104629   1.425574   2.440435   0.000000
    15  C    7.528880   2.445192   1.378576   2.804762   0.000000
    16  H    5.524296   2.177473   1.083233   3.425832   2.125816
    17  C    8.310581   2.446345   2.807702   1.379716   2.447634
    18  H    7.233939   2.174424   3.426874   1.083793   3.888465
    19  C    8.499512   2.817502   2.411092   2.410413   1.409720
    20  H    7.983851   3.434326   2.150010   3.888098   1.084283
    21  H    9.239930   3.431104   3.893091   2.144398   3.429687
    22  C    4.937076   2.500425   3.777160   2.916869   4.902075
    23  C    5.010265   3.664937   4.984577   3.901762   6.108721
    24  C    5.654501   3.057354   4.186777   3.241699   5.147353
    25  C    5.744331   4.846694   6.189373   4.884620   7.257035
    26  C    6.310302   4.412072   5.573233   4.384433   6.475970
    27  H    5.964060   2.847477   3.701196   3.104885   4.540762
    28  C    6.347908   5.153160   6.439426   5.091968   7.419479
    29  H    6.156612   5.753469   7.107442   5.750639   8.178871
    30  H    7.050975   5.095471   6.132441   4.993647   6.917423
    31  H    7.116499   6.214506   7.496402   6.073249   8.441488
    32  O    2.562959   6.507235   6.418164   7.833269   7.609781
    33  H    3.519294   6.812586   6.588187   8.129384   7.679018
    34  O    9.771839   4.160008   3.610637   3.654863   2.347477
    35  H   10.409261   4.632629   4.331242   3.842831   3.183293
    36  C    5.031471   4.062656   5.290374   4.348521   6.404628
    37  O    5.348495   3.634317   4.735857   3.930890   5.758276
    38  O    5.242366   5.396808   6.596341   5.674442   7.736738
    39  H    5.606021   5.815379   6.939432   6.091152   8.037517
                   16         17         18         19         20
    16  H    0.000000
    17  C    3.889419   0.000000
    18  H    4.330540   2.128527   0.000000
    19  C    3.388544   1.410141   3.390149   0.000000
    20  H    2.463928   3.421940   4.971837   2.156800   0.000000
    21  H    4.974808   1.085504   2.455706   2.167928   4.314302
    22  C    4.108427   4.278424   2.599940   5.109061   5.859885
    23  C    5.293706   5.261318   3.304263   6.227627   7.088497
    24  C    4.552268   4.424926   2.936405   5.255257   6.069756
    25  C    6.520983   6.183087   4.121219   7.260522   8.254166
    26  C    5.939778   5.498429   3.842025   6.454556   7.404658
    27  H    4.055517   4.086696   3.115094   4.713845   5.381976
    28  C    6.796112   6.292677   4.355810   7.365327   8.396317
    29  H    7.429637   7.030417   4.923507   8.150769   9.184972
    30  H    6.498267   5.947159   4.519937   6.848560   7.791670
    31  H    7.856785   7.214891   5.283698   8.327814   9.417821
    32  O    5.614199   8.834227   8.178403   8.737802   7.836685
    33  H    5.771209   9.032400   8.544396   8.833889   7.817305
    34  O    4.471424   2.415377   4.537497   1.343640   2.559689
    35  H    5.273337   2.475734   4.555407   1.924724   3.516789
    36  C    5.565152   5.643323   3.814566   6.553436   7.355146
    37  O    5.059314   5.103762   3.573005   5.909332   6.676201
    38  O    6.793993   6.958733   5.068391   7.894439   8.669731
    39  H    7.128487   7.305718   5.533653   8.196597   8.940660
                   21         22         23         24         25
    21  H    0.000000
    22  C    4.920690   0.000000
    23  C    5.757280   1.418743   0.000000
    24  C    4.974705   1.404921   2.430058   0.000000
    25  C    6.528208   2.437172   1.399303   2.789106   0.000000
    26  C    5.859671   2.437449   2.806063   1.396757   2.416434
    27  H    4.713880   2.154010   3.413026   1.084707   3.873603
    28  C    6.581779   2.815973   2.430219   2.417413   1.397370
    29  H    7.310168   3.416051   2.147971   3.872212   1.083549
    30  H    6.240794   3.415093   3.891119   2.150558   3.403090
    31  H    7.411842   3.900944   3.409405   3.403168   2.152833
    32  O    9.826660   6.422577   6.584268   7.374963   7.617547
    33  H   10.029125   7.014397   7.212228   8.017439   8.324382
    34  O    2.684083   6.427453   7.530304   6.491171   8.522156
    35  H    2.324605   6.714931   7.736450   6.727574   8.636657
    36  C    6.138167   2.526367   1.491963   3.798728   2.498167
    37  O    5.633879   2.936099   2.401367   4.302514   3.590149
    38  O    7.395199   3.656598   2.368592   4.791842   2.766990
    39  H    7.728801   4.391123   3.204304   5.616492   3.709742
                   26         27         28         29         30
    26  C    0.000000
    27  H    2.152295   0.000000
    28  C    1.394626   3.398494   0.000000
    29  H    3.398505   4.956839   2.154796   0.000000
    30  H    1.085077   2.471345   2.157438   4.299732   0.000000
    31  H    2.156817   4.297638   1.084983   2.478562   2.492374
    32  O    8.305425   7.548551   8.412277   7.996517   9.114233
    33  H    9.025730   8.145314   9.162032   8.702516   9.849826
    34  O    7.628416   5.889554   8.572414   9.400802   7.929626
    35  H    7.755365   6.189036   8.652578   9.477738   8.023328
    36  C    4.291706   4.673325   3.785983   2.688952   5.376077
    37  O    5.060037   4.995437   4.775924   3.851523   6.122193
    38  O    4.995189   5.754690   4.159839   2.431902   6.055753
    39  H    5.912790   6.532834   5.106696   3.322621   6.982098
                   31         32         33         34         35
    31  H    0.000000
    32  O    9.292108   0.000000
    33  H   10.076191   0.970141   0.000000
    34  O    9.494810   9.876502   9.900435   0.000000
    35  H    9.518871  10.614639  10.663112   0.970358   0.000000
    36  C    4.647595   6.157647   6.674435   7.832356   8.050719
    37  O    5.698957   5.982285   6.338444   7.140957   7.384724
    38  O    4.796898   6.451406   7.011275   9.164621   9.359543
    39  H    5.733930   6.463690   6.922188   9.429046   9.623672
                   36         37         38         39
    36  C    0.000000
    37  O    1.219885   0.000000
    38  O    1.346793   2.252770   0.000000
    39  H    1.892357   2.311703   0.973588   0.000000
 Stoichiometry    C20H15O4(1+)
 Framework group  C1[X(C20H15O4)]
 Deg. of freedom   111
 Full point group                 C1      NOp   1
 RotChk:  IX=0 Diff= 9.60D-16
 Largest Abelian subgroup         C1      NOp   1
 Largest concise Abelian subgroup C1      NOp   1
                         Standard orientation:                         
 ---------------------------------------------------------------------
 Center     Atomic      Atomic             Coordinates (Angstroms)
 Number     Number       Type             X           Y           Z
 ---------------------------------------------------------------------
      1          6           0       -0.220528    0.020308   -0.251762
      2          6           0        0.827403   -0.959400   -0.299611
      3          6           0        0.716570   -2.207998    0.375422
      4          6           0        2.038011   -0.692785   -1.002601
      5          6           0        1.737996   -3.136530    0.338397
      6          1           0       -0.152801   -2.411013    0.989094
      7          6           0        3.051374   -1.626834   -1.066992
      8          1           0        2.150059    0.241361   -1.540671
      9          6           0        2.908554   -2.856460   -0.394539
     10          1           0        1.651400   -4.069001    0.887582
     11          1           0        3.957164   -1.433793   -1.630883
     12          6           0       -1.602538   -0.324557   -0.109775
     13          6           0       -2.117848   -1.588103   -0.527894
     14          6           0       -2.522743    0.615439    0.439674
     15          6           0       -3.452833   -1.899706   -0.382319
     16          1           0       -1.466503   -2.293756   -1.029088
     17          6           0       -3.854512    0.299694    0.613775
     18          1           0       -2.163036    1.581962    0.772919
     19          6           0       -4.328050   -0.964656    0.206739
     20          1           0       -3.848785   -2.847253   -0.730235
     21          1           0       -4.534777    1.015784    1.064079
     22          6           0        0.126494    1.449014   -0.451852
     23          6           0        1.065558    2.145202    0.352085
     24          6           0       -0.446619    2.112123   -1.549864
     25          6           0        1.429826    3.454198    0.017588
     26          6           0       -0.071040    3.417339   -1.875874
     27          1           0       -1.158084    1.584073   -2.175620
     28          6           0        0.870830    4.087434   -1.095596
     29          1           0        2.131808    3.986090    0.648770
     30          1           0       -0.515700    3.903210   -2.738195
     31          1           0        1.161383    5.104024   -1.339136
     32          8           0        3.934765   -3.722630   -0.477851
     33          1           0        3.747011   -4.541169    0.007860
     34          8           0       -5.613326   -1.332994    0.340009
     35          1           0       -6.145392   -0.629777    0.744961
     36          6           0        1.553809    1.550290    1.630226
     37          8           0        0.961323    0.688631    2.258417
     38          8           0        2.715778    2.086308    2.050183
     39          1           0        2.939666    1.690678    2.911127
 ---------------------------------------------------------------------
 Rotational constants (GHZ):      0.2704053      0.2043303      0.1390891
 Leave Link  202 at Thu Jan  7 10:07:16 2021, MaxMem=   786432000 cpu:         0.5
 (Enter /opt/QChem/g09/l301.exe)
 Standard basis: 6-31++G(d,p) (6D, 7F)
 Ernie: Thresh=  0.10000D-02 Tol=  0.10000D-05 Strict=F.
 There are   546 symmetry adapted cartesian basis functions of A   symmetry.
 There are   546 symmetry adapted basis functions of A   symmetry.
   546 basis functions,   888 primitive gaussians,   546 cartesian basis functions
    83 alpha electrons       83 beta electrons
       nuclear repulsion energy      1938.3869731362 Hartrees.
 IExCor=  402 DFT=T Ex+Corr=B3LYP ExCW=0 ScaHFX=  0.200000
 ScaDFX=  0.800000  0.720000  1.000000  0.810000 ScalE2=  1.000000  1.000000
 IRadAn=      0 IRanWt=     -1 IRanGd=            0 ICorTp=0 IEmpDi=  4
 NAtoms=   39 NActive=   39 NUniq=   39 SFac= 1.00D+00 NAtFMM=   60 NAOKFM=F Big=F
 Integral buffers will be    131072 words long.
 Regular integral format.
 Two-electron integral symmetry is turned on.
 ------------------------------------------------------------------------------
 Polarizable Continuum Model (PCM)
 =================================
 Model                : C-PCM.
 Atomic radii         : UFF (Universal Force Field).
 Polarization charges : Total charges.
 Charge compensation  : None.
 Solution method      : On-the-fly selection.
 Cavity type          : Scaled VdW (van der Waals Surface) (Alpha=1.100).
 Cavity algorithm     : GePol (No added spheres)
                        Default sphere list used, NSphG=   39.
                        Lebedev-Laikov grids with approx.  5.0 points / Ang**2.
                        Smoothing algorithm: Karplus/York (Gamma=1.0000).
                        Polarization charges: spherical gaussians, with
                                              point-specific exponents (IZeta= 3).
                        Self-potential: point-specific (ISelfS= 7).
                        Self-field    : sphere-specific E.n sum rule (ISelfD= 2).
 Solvent              : Water, Eps=  78.355300 Eps(inf)=   1.777849
 ------------------------------------------------------------------------------
 GePol: Number of generator spheres                  =      39
 GePol: Total number of spheres                      =      39
 GePol: Number of exposed spheres                    =      39 (100.00%)
 GePol: Number of points                             =    2964
 GePol: Average weight of points                     =       0.13
 GePol: Minimum weight of points                     =   0.22D-09
 GePol: Maximum weight of points                     =    0.20577
 GePol: Number of points with low weight             =     180
 GePol: Fraction of low-weight points (<1% of avg)   =       6.07%
 GePol: Cavity surface area                          =    383.924 Ang**2
 GePol: Cavity volume                                =    427.416 Ang**3
 Leave Link  301 at Thu Jan  7 10:07:17 2021, MaxMem=   786432000 cpu:         2.3
 (Enter /opt/QChem/g09/l302.exe)
 NPDir=0 NMtPBC=     1 NCelOv=     1 NCel=       1 NClECP=     1 NCelD=      1
         NCelK=      1 NCelE2=     1 NClLst=     1 CellRange=     0.0.
 One-electron integrals computed using PRISM.
 NBasis=   546 RedAO= T EigKep=  1.24D-06  NBF=   546
 NBsUse=   538 1.00D-06 EigRej=  9.09D-07 NBFU=   538
 Precomputing XC quadrature grid using
 IXCGrd= 4 IRadAn=           0 IRanWt=          -1 IRanGd=           0 AccXCQ= 0.00D+00.
 Generated NRdTot=       0 NPtTot=           0 NUsed=           0 NTot=          32
 NSgBfM=   543   543   543   543   543 MxSgAt=    39 MxSgA2=    39.
 Leave Link  302 at Thu Jan  7 10:07:19 2021, MaxMem=   786432000 cpu:        14.0
 (Enter /opt/QChem/g09/l308.exe)
 Leave Link  308 at Thu Jan  7 10:07:30 2021, MaxMem=   786432000 cpu:         3.7
 (Enter /opt/QChem/g09/l303.exe)
 DipDrv:  MaxL=1.
 Leave Link  303 at Thu Jan  7 10:07:31 2021, MaxMem=   786432000 cpu:         1.3
 (Enter /opt/QChem/g09/l401.exe)
 ExpMin= 3.60D-02 ExpMax= 5.48D+03 ExpMxC= 8.25D+02 IAcc=3 IRadAn=         5 AccDes= 0.00D+00
 Harris functional with IExCor=  402 and IRadAn=       5 diagonalized for initial guess.
 HarFok:  IExCor=  402 AccDes= 0.00D+00 IRadAn=         5 IDoV= 1 UseB2=F ITyADJ=14
 ICtDFT=  3500011 ScaDFX=  1.000000  1.000000  1.000000  1.000000
 FoFCou: FMM=F IPFlag=           0 FMFlag=      100000 FMFlg1=           0
         NFxFlg=           0 DoJE=T BraDBF=F KetDBF=T FulRan=T
         wScrn=  0.000000 ICntrl=     500 IOpCl=  0 I1Cent=   200000004 NGrid=           0
         NMat0=    1 NMatS0=      1 NMatT0=    0 NMatD0=    1 NMtDS0=    0 NMtDT0=    0
 Petite list used in FoFCou.
 Harris En= -1071.89207778004    
 JPrj=0 DoOrth=F DoCkMO=F.
 Leave Link  401 at Thu Jan  7 10:07:48 2021, MaxMem=   786432000 cpu:       111.2
 (Enter /opt/QChem/g09/l502.exe)
 Closed shell SCF:
 Using DIIS extrapolation, IDIIS=  1040.
 Integral symmetry usage will be decided dynamically.
 IVT=      921346 IEndB=      921346 NGot=   786432000 MDV=   785825957
 LenX=   785825957 LenY=   785527295
 Requested convergence on RMS density matrix=1.00D-08 within 128 cycles.
 Requested convergence on MAX density matrix=1.00D-06.
 Requested convergence on             energy=1.00D-06.
 No special actions if energy rises.
 Fock matrices will be formed incrementally for  20 cycles.

 Cycle   1  Pass 1  IDiag  1:
 FoFJK:  IHMeth= 1 ICntrl=       0 DoSepK=F KAlg= 0 I1Cent=   0 FoldK=F
 IRaf= 810000000 NMat=   1 IRICut=       1 DoRegI=T DoRafI=F ISym2E= 0.
 FoFCou: FMM=F IPFlag=           0 FMFlag=      100000 FMFlg1=           0
         NFxFlg=           0 DoJE=F BraDBF=F KetDBF=F FulRan=T
         wScrn=  0.000000 ICntrl=       0 IOpCl=  0 I1Cent=           0 NGrid=           0
         NMat0=    1 NMatS0=      1 NMatT0=    0 NMatD0=    1 NMtDS0=    0 NMtDT0=    0
 Symmetry not used in FoFCou.
 Inv3:  Mode=1 IEnd=    26355888.
 Iteration    1 A*A^-1 deviation from unit magnitude is 6.88D-15 for   2941.
 Iteration    1 A*A^-1 deviation from orthogonality  is 2.24D-15 for   2946   2219.
 Iteration    1 A^-1*A deviation from unit magnitude is 6.88D-15 for   2941.
 Iteration    1 A^-1*A deviation from orthogonality  is 2.01D-15 for   2050   1661.
 E= -1071.55059300797    
 DIIS: error= 1.58D-02 at cycle   1 NSaved=   1.
 NSaved= 1 IEnMin= 1 EnMin= -1071.55059300797     IErMin= 1 ErrMin= 1.58D-02
 ErrMax= 1.58D-02  0.00D+00 EMaxC= 1.00D-01 BMatC= 4.69D-01 BMatP= 4.69D-01
 IDIUse=3 WtCom= 8.42D-01 WtEn= 1.58D-01
 Coeff-Com:  0.100D+01
 Coeff-En:   0.100D+01
 Coeff:      0.100D+01
 Gap=     0.091 Goal=   None    Shift=    0.000
 GapD=    0.091 DampG=0.500 DampE=0.500 DampFc=0.2500 IDamp=-1.
 Damping current iteration by 2.50D-01
 RMSDP=3.48D-02 MaxDP=2.00D+00              OVMax= 2.02D-01

 Cycle   2  Pass 1  IDiag  1:
 RMSU=  7.74D-03    CP:  1.03D+00
 E= -1071.70164149864     Delta-E=       -0.151048490674 Rises=F Damp=T
 DIIS: error= 1.09D-02 at cycle   2 NSaved=   2.
 NSaved= 2 IEnMin= 2 EnMin= -1071.70164149864     IErMin= 2 ErrMin= 1.09D-02
 ErrMax= 1.09D-02  0.00D+00 EMaxC= 1.00D-01 BMatC= 1.19D-01 BMatP= 4.69D-01
 IDIUse=3 WtCom= 8.91D-01 WtEn= 1.09D-01
 Coeff-Com: -0.740D+00 0.174D+01
 Coeff-En:   0.000D+00 0.100D+01
 Coeff:     -0.659D+00 0.166D+01
 Gap=     0.149 Goal=   None    Shift=    0.000
 RMSDP=3.10D-02 MaxDP=3.29D+00 DE=-1.51D-01 OVMax= 1.42D-01

 Cycle   3  Pass 1  IDiag  1:
 RMSU=  8.95D-03    CP:  7.89D-01  1.32D+00
 E= -1071.93765586274     Delta-E=       -0.236014364098 Rises=F Damp=F
 DIIS: error= 4.83D-03 at cycle   3 NSaved=   3.
 NSaved= 3 IEnMin= 3 EnMin= -1071.93765586274     IErMin= 3 ErrMin= 4.83D-03
 ErrMax= 4.83D-03  0.00D+00 EMaxC= 1.00D-01 BMatC= 4.20D-02 BMatP= 1.19D-01
 IDIUse=3 WtCom= 9.52D-01 WtEn= 4.83D-02
 Coeff-Com: -0.448D+00 0.934D+00 0.514D+00
 Coeff-En:   0.000D+00 0.000D+00 0.100D+01
 Coeff:     -0.427D+00 0.889D+00 0.538D+00
 Gap=     0.109 Goal=   None    Shift=    0.000
 RMSDP=5.09D-03 MaxDP=2.59D-01 DE=-2.36D-01 OVMax= 7.52D-02

 Cycle   4  Pass 1  IDiag  1:
 RMSU=  4.87D-03    CP:  7.91D-01  1.34D+00  8.35D-01
 E= -1071.96818269041     Delta-E=       -0.030526827668 Rises=F Damp=F
 DIIS: error= 2.34D-03 at cycle   4 NSaved=   4.
 NSaved= 4 IEnMin= 4 EnMin= -1071.96818269041     IErMin= 4 ErrMin= 2.34D-03
 ErrMax= 2.34D-03  0.00D+00 EMaxC= 1.00D-01 BMatC= 9.24D-03 BMatP= 4.20D-02
 IDIUse=3 WtCom= 9.77D-01 WtEn= 2.34D-02
 Coeff-Com: -0.123D+00 0.236D+00 0.333D+00 0.555D+00
 Coeff-En:   0.000D+00 0.000D+00 0.206D+00 0.794D+00
 Coeff:     -0.120D+00 0.230D+00 0.330D+00 0.560D+00
 Gap=     0.113 Goal=   None    Shift=    0.000
 RMSDP=2.28D-03 MaxDP=1.02D-01 DE=-3.05D-02 OVMax= 2.93D-02

 Cycle   5  Pass 1  IDiag  1:
 RMSU=  1.04D-03    CP:  7.83D-01  1.36D+00  8.75D-01  6.33D-01
 E= -1071.97591504118     Delta-E=       -0.007732350771 Rises=F Damp=F
 DIIS: error= 6.58D-04 at cycle   5 NSaved=   5.
 NSaved= 5 IEnMin= 5 EnMin= -1071.97591504118     IErMin= 5 ErrMin= 6.58D-04
 ErrMax= 6.58D-04  0.00D+00 EMaxC= 1.00D-01 BMatC= 8.71D-04 BMatP= 9.24D-03
 IDIUse=3 WtCom= 9.93D-01 WtEn= 6.58D-03
 Coeff-Com: -0.294D-01 0.495D-01 0.145D+00 0.332D+00 0.504D+00
 Coeff-En:   0.000D+00 0.000D+00 0.000D+00 0.307D-01 0.969D+00
 Coeff:     -0.292D-01 0.492D-01 0.144D+00 0.330D+00 0.507D+00
 Gap=     0.112 Goal=   None    Shift=    0.000
 RMSDP=5.66D-04 MaxDP=2.94D-02 DE=-7.73D-03 OVMax= 7.02D-03

 Cycle   6  Pass 1  IDiag  1:
 RMSU=  4.08D-04    CP:  7.85D-01  1.37D+00  8.70D-01  6.19D-01  7.40D-01
 E= -1071.97669231285     Delta-E=       -0.000777271667 Rises=F Damp=F
 DIIS: error= 2.39D-04 at cycle   6 NSaved=   6.
 NSaved= 6 IEnMin= 6 EnMin= -1071.97669231285     IErMin= 6 ErrMin= 2.39D-04
 ErrMax= 2.39D-04  0.00D+00 EMaxC= 1.00D-01 BMatC= 4.50D-05 BMatP= 8.71D-04
 IDIUse=3 WtCom= 9.98D-01 WtEn= 2.39D-03
 Coeff-Com: -0.665D-02 0.906D-02 0.486D-01 0.127D+00 0.262D+00 0.559D+00
 Coeff-En:   0.000D+00 0.000D+00 0.000D+00 0.000D+00 0.000D+00 0.100D+01
 Coeff:     -0.664D-02 0.904D-02 0.485D-01 0.127D+00 0.261D+00 0.560D+00
 Gap=     0.113 Goal=   None    Shift=    0.000
 RMSDP=1.66D-04 MaxDP=1.04D-02 DE=-7.77D-04 OVMax= 2.44D-03

 Cycle   7  Pass 1  IDiag  1:
 RMSU=  1.12D-04    CP:  7.86D-01  1.37D+00  8.72D-01  6.22D-01  7.44D-01
                    CP:  7.16D-01
 E= -1071.97672747845     Delta-E=       -0.000035165608 Rises=F Damp=F
 DIIS: error= 9.69D-05 at cycle   7 NSaved=   7.
 NSaved= 7 IEnMin= 7 EnMin= -1071.97672747845     IErMin= 7 ErrMin= 9.69D-05
 ErrMax= 9.69D-05  0.00D+00 EMaxC= 1.00D-01 BMatC= 9.99D-06 BMatP= 4.50D-05
 IDIUse=1 WtCom= 1.00D+00 WtEn= 0.00D+00
 Coeff-Com: -0.218D-02 0.229D-02 0.184D-01 0.519D-01 0.124D+00 0.375D+00
 Coeff-Com:  0.430D+00
 Coeff:     -0.218D-02 0.229D-02 0.184D-01 0.519D-01 0.124D+00 0.375D+00
 Coeff:      0.430D+00
 Gap=     0.113 Goal=   None    Shift=    0.000
 RMSDP=7.71D-05 MaxDP=4.07D-03 DE=-3.52D-05 OVMax= 9.66D-04

 Cycle   8  Pass 1  IDiag  1:
 RMSU=  3.97D-05    CP:  7.86D-01  1.37D+00  8.73D-01  6.29D-01  7.19D-01
                    CP:  7.12D-01  5.90D-01
 E= -1071.97673808400     Delta-E=       -0.000010605543 Rises=F Damp=F
 DIIS: error= 1.63D-05 at cycle   8 NSaved=   8.
 NSaved= 8 IEnMin= 8 EnMin= -1071.97673808400     IErMin= 8 ErrMin= 1.63D-05
 ErrMax= 1.63D-05  0.00D+00 EMaxC= 1.00D-01 BMatC= 5.83D-07 BMatP= 9.99D-06
 IDIUse=1 WtCom= 1.00D+00 WtEn= 0.00D+00
 Coeff-Com: -0.559D-03 0.289D-03 0.631D-02 0.191D-01 0.506D-01 0.171D+00
 Coeff-Com:  0.244D+00 0.510D+00
 Coeff:     -0.559D-03 0.289D-03 0.631D-02 0.191D-01 0.506D-01 0.171D+00
 Coeff:      0.244D+00 0.510D+00
 Gap=     0.113 Goal=   None    Shift=    0.000
 RMSDP=1.52D-05 MaxDP=8.33D-04 DE=-1.06D-05 OVMax= 2.83D-04

 Cycle   9  Pass 1  IDiag  1:
 RMSU=  1.07D-05    CP:  7.86D-01  1.37D+00  8.74D-01  6.28D-01  7.22D-01
                    CP:  7.11D-01  6.31D-01  8.33D-01
 E= -1071.97673856485     Delta-E=       -0.000000480858 Rises=F Damp=F
 DIIS: error= 6.19D-06 at cycle   9 NSaved=   9.
 NSaved= 9 IEnMin= 9 EnMin= -1071.97673856485     IErMin= 9 ErrMin= 6.19D-06
 ErrMax= 6.19D-06  0.00D+00 EMaxC= 1.00D-01 BMatC= 8.48D-08 BMatP= 5.83D-07
 IDIUse=1 WtCom= 1.00D+00 WtEn= 0.00D+00
 Coeff-Com:  0.339D-04-0.169D-03 0.153D-03 0.105D-02 0.577D-02 0.268D-01
 Coeff-Com:  0.517D-01 0.296D+00 0.619D+00
 Coeff:      0.339D-04-0.169D-03 0.153D-03 0.105D-02 0.577D-02 0.268D-01
 Coeff:      0.517D-01 0.296D+00 0.619D+00
 Gap=     0.113 Goal=   None    Shift=    0.000
 RMSDP=6.32D-06 MaxDP=2.77D-04 DE=-4.81D-07 OVMax= 9.03D-05

 Cycle  10  Pass 1  IDiag  1:
 RMSU=  2.60D-06    CP:  7.86D-01  1.37D+00  8.74D-01  6.29D-01  7.24D-01
                    CP:  7.16D-01  6.26D-01  9.01D-01  7.46D-01
 E= -1071.97673864000     Delta-E=       -0.000000075148 Rises=F Damp=F
 DIIS: error= 1.81D-06 at cycle  10 NSaved=  10.
 NSaved=10 IEnMin=10 EnMin= -1071.97673864000     IErMin=10 ErrMin= 1.81D-06
 ErrMax= 1.81D-06  0.00D+00 EMaxC= 1.00D-01 BMatC= 6.75D-09 BMatP= 8.48D-08
 IDIUse=1 WtCom= 1.00D+00 WtEn= 0.00D+00
 Coeff-Com:  0.437D-04-0.101D-03-0.242D-03-0.452D-03 0.450D-03 0.509D-02
 Coeff-Com:  0.133D-01 0.130D+00 0.340D+00 0.512D+00
 Coeff:      0.437D-04-0.101D-03-0.242D-03-0.452D-03 0.450D-03 0.509D-02
 Coeff:      0.133D-01 0.130D+00 0.340D+00 0.512D+00
 Gap=     0.113 Goal=   None    Shift=    0.000
 RMSDP=2.99D-06 MaxDP=2.81D-04 DE=-7.51D-08 OVMax= 3.36D-05

 Cycle  11  Pass 1  IDiag  1:
 RMSU=  1.17D-06    CP:  7.86D-01  1.37D+00  8.74D-01  6.28D-01  7.24D-01
                    CP:  7.17D-01  6.28D-01  9.02D-01  7.48D-01  6.13D-01
 E= -1071.97673864656     Delta-E=       -0.000000006561 Rises=F Damp=F
 DIIS: error= 4.53D-07 at cycle  11 NSaved=  11.
 NSaved=11 IEnMin=11 EnMin= -1071.97673864656     IErMin=11 ErrMin= 4.53D-07
 ErrMax= 4.53D-07  0.00D+00 EMaxC= 1.00D-01 BMatC= 5.70D-10 BMatP= 6.75D-09
 IDIUse=1 WtCom= 1.00D+00 WtEn= 0.00D+00
 Coeff-Com:  0.125D-04-0.177D-04-0.151D-03-0.413D-03-0.673D-03-0.159D-02
 Coeff-Com: -0.170D-02 0.179D-01 0.741D-01 0.259D+00 0.654D+00
 Coeff:      0.125D-04-0.177D-04-0.151D-03-0.413D-03-0.673D-03-0.159D-02
 Coeff:     -0.170D-02 0.179D-01 0.741D-01 0.259D+00 0.654D+00
 Gap=     0.113 Goal=   None    Shift=    0.000
 RMSDP=1.26D-06 MaxDP=1.22D-04 DE=-6.56D-09 OVMax= 8.24D-06

 Cycle  12  Pass 1  IDiag  1:
 RMSU=  2.69D-07    CP:  7.86D-01  1.37D+00  8.74D-01  6.28D-01  7.24D-01
                    CP:  7.16D-01  6.28D-01  9.07D-01  7.61D-01  6.85D-01
                    CP:  7.38D-01
 E= -1071.97673864713     Delta-E=       -0.000000000570 Rises=F Damp=F
 DIIS: error= 1.05D-07 at cycle  12 NSaved=  12.
 NSaved=12 IEnMin=12 EnMin= -1071.97673864713     IErMin=12 ErrMin= 1.05D-07
 ErrMax= 1.05D-07  0.00D+00 EMaxC= 1.00D-01 BMatC= 3.17D-11 BMatP= 5.70D-10
 IDIUse=1 WtCom= 1.00D+00 WtEn= 0.00D+00
 Coeff-Com:  0.336D-05-0.294D-05-0.646D-04-0.185D-03-0.377D-03-0.109D-02
 Coeff-Com: -0.178D-02 0.150D-02 0.173D-01 0.976D-01 0.307D+00 0.580D+00
 Coeff:      0.336D-05-0.294D-05-0.646D-04-0.185D-03-0.377D-03-0.109D-02
 Coeff:     -0.178D-02 0.150D-02 0.173D-01 0.976D-01 0.307D+00 0.580D+00
 Gap=     0.113 Goal=   None    Shift=    0.000
 RMSDP=1.74D-07 MaxDP=1.10D-05 DE=-5.70D-10 OVMax= 1.51D-06

 Cycle  13  Pass 1  IDiag  1:
 RMSU=  8.85D-08    CP:  7.86D-01  1.37D+00  8.74D-01  6.28D-01  7.24D-01
                    CP:  7.16D-01  6.29D-01  9.07D-01  7.62D-01  6.91D-01
                    CP:  7.90D-01  8.53D-01
 E= -1071.97673864720     Delta-E=       -0.000000000067 Rises=F Damp=F
 DIIS: error= 4.67D-08 at cycle  13 NSaved=  13.
 NSaved=13 IEnMin=13 EnMin= -1071.97673864720     IErMin=13 ErrMin= 4.67D-08
 ErrMax= 4.67D-08  0.00D+00 EMaxC= 1.00D-01 BMatC= 5.61D-12 BMatP= 3.17D-11
 IDIUse=1 WtCom= 1.00D+00 WtEn= 0.00D+00
 Coeff-Com: -0.813D-06 0.195D-05-0.803D-05-0.239D-04-0.743D-04-0.247D-03
 Coeff-Com: -0.673D-03-0.182D-02-0.281D-02 0.881D-02 0.516D-01 0.311D+00
 Coeff-Com:  0.634D+00
 Coeff:     -0.813D-06 0.195D-05-0.803D-05-0.239D-04-0.743D-04-0.247D-03
 Coeff:     -0.673D-03-0.182D-02-0.281D-02 0.881D-02 0.516D-01 0.311D+00
 Coeff:      0.634D+00
 Gap=     0.113 Goal=   None    Shift=    0.000
 RMSDP=6.27D-08 MaxDP=2.51D-06 DE=-6.73D-11 OVMax= 6.77D-07

 Cycle  14  Pass 1  IDiag  1:
 RMSU=  2.98D-08    CP:  7.86D-01  1.37D+00  8.74D-01  6.28D-01  7.24D-01
                    CP:  7.16D-01  6.29D-01  9.07D-01  7.61D-01  6.93D-01
                    CP:  7.93D-01  9.13D-01  7.41D-01
 E= -1071.97673864721     Delta-E=       -0.000000000007 Rises=F Damp=F
 DIIS: error= 1.39D-08 at cycle  14 NSaved=  14.
 NSaved=14 IEnMin=14 EnMin= -1071.97673864721     IErMin=14 ErrMin= 1.39D-08
 ErrMax= 1.39D-08  0.00D+00 EMaxC= 1.00D-01 BMatC= 6.06D-13 BMatP= 5.61D-12
 IDIUse=1 WtCom= 1.00D+00 WtEn= 0.00D+00
 Coeff-Com: -0.834D-06 0.148D-05 0.995D-06 0.271D-05-0.951D-05-0.425D-04
 Coeff-Com: -0.241D-03-0.109D-02-0.306D-02-0.330D-02 0.133D-02 0.119D+00
 Coeff-Com:  0.339D+00 0.549D+00
 Coeff:     -0.834D-06 0.148D-05 0.995D-06 0.271D-05-0.951D-05-0.425D-04
 Coeff:     -0.241D-03-0.109D-02-0.306D-02-0.330D-02 0.133D-02 0.119D+00
 Coeff:      0.339D+00 0.549D+00
 Gap=     0.113 Goal=   None    Shift=    0.000
 RMSDP=2.14D-08 MaxDP=1.26D-06 DE=-6.82D-12 OVMax= 1.97D-07

 Cycle  15  Pass 1  IDiag  1:
 RMSU=  1.15D-08    CP:  7.86D-01  1.37D+00  8.74D-01  6.28D-01  7.24D-01
                    CP:  7.16D-01  6.29D-01  9.07D-01  7.61D-01  6.94D-01
                    CP:  7.93D-01  9.21D-01  8.09D-01  7.16D-01
 E= -1071.97673864725     Delta-E=       -0.000000000041 Rises=F Damp=F
 DIIS: error= 3.62D-09 at cycle  15 NSaved=  15.
 NSaved=15 IEnMin=15 EnMin= -1071.97673864725     IErMin=15 ErrMin= 3.62D-09
 ErrMax= 3.62D-09  0.00D+00 EMaxC= 1.00D-01 BMatC= 4.05D-14 BMatP= 6.06D-13
 IDIUse=1 WtCom= 1.00D+00 WtEn= 0.00D+00
 Coeff-Com: -0.242D-06 0.363D-06 0.148D-05 0.450D-05 0.558D-05 0.130D-04
 Coeff-Com: -0.294D-04-0.243D-03-0.108D-02-0.268D-02-0.699D-02 0.111D-01
 Coeff-Com:  0.639D-01 0.233D+00 0.703D+00
 Coeff:     -0.242D-06 0.363D-06 0.148D-05 0.450D-05 0.558D-05 0.130D-04
 Coeff:     -0.294D-04-0.243D-03-0.108D-02-0.268D-02-0.699D-02 0.111D-01
 Coeff:      0.639D-01 0.233D+00 0.703D+00
 Gap=     0.113 Goal=   None    Shift=    0.000
 RMSDP=6.96D-09 MaxDP=2.77D-07 DE=-4.14D-11 OVMax= 7.60D-08

 Error on total polarization charges =  0.01625
 SCF Done:  E(RB3LYP) =  -1071.97673865     A.U. after   15 cycles
            NFock= 15  Conv=0.70D-08     -V/T= 2.0095
 KE= 1.061862085210D+03 PE=-6.348911151517D+03 EE= 2.276685354524D+03
 Leave Link  502 at Thu Jan  7 10:21:08 2021, MaxMem=   786432000 cpu:      6319.7
 (Enter /opt/QChem/g09/l801.exe)
 DoSCS=F DFT=T ScalE2(SS,OS)=  1.000000  1.000000
 ExpMin= 3.60D-02 ExpMax= 5.48D+03 ExpMxC= 8.25D+02 IAcc=3 IRadAn=         5 AccDes= 0.00D+00
 HarFok:  IExCor=  205 AccDes= 0.00D+00 IRadAn=         5 IDoV=-2 UseB2=F ITyADJ=14
 ICtDFT= 12500011 ScaDFX=  1.000000  1.000000  1.000000  1.000000
 Largest valence mixing into a core orbital is  5.75D-05
 Largest core mixing into a valence orbital is  1.18D-05
 Range of M.O.s used for correlation:    25   538
 NBasis=   546 NAE=    83 NBE=    83 NFC=    24 NFV=     0
 NROrb=    514 NOA=    59 NOB=    59 NVA=   455 NVB=   455

 **** Warning!!: The largest alpha MO coefficient is  0.86587676D+02

 Leave Link  801 at Thu Jan  7 10:21:10 2021, MaxMem=   786432000 cpu:         4.8
 (Enter /opt/QChem/g09/l914.exe)
 RHF ground state
 MDV=   786432000 DFT=T DoStab=F Mixed=T DoRPA=T DoScal=F NonHer=T
 Would need an additional         33103600000 words for in-memory AO integral storage.
 NEqPCM:  Using non-equilibrium solvation (IEInf=1, Eps=  78.3553, EpsInf=   1.7778)
 Inv3:  Mode=1 IEnd=    26355888.
 Iteration    1 A*A^-1 deviation from unit magnitude is 6.88D-15 for   2941.
 Iteration    1 A*A^-1 deviation from orthogonality  is 2.24D-15 for   2946   2219.
 Iteration    1 A^-1*A deviation from unit magnitude is 6.88D-15 for   2941.
 Iteration    1 A^-1*A deviation from orthogonality  is 2.01D-15 for   2050   1661.
 Making orbital integer symmetry assigments:
 Orbital symmetries:
       Occupied  (A) (A) (A) (A) (A) (A) (A) (A) (A) (A) (A) (A)
                 (A) (A) (A) (A) (A) (A) (A) (A) (A) (A) (A) (A)
                 (A) (A) (A) (A) (A) (A) (A) (A) (A) (A) (A) (A)
                 (A) (A) (A) (A) (A) (A) (A) (A) (A) (A) (A) (A)
                 (A) (A) (A) (A) (A) (A) (A) (A) (A) (A) (A) (A)
                 (A) (A) (A) (A) (A) (A) (A) (A) (A) (A) (A) (A)
                 (A) (A) (A) (A) (A) (A) (A) (A) (A) (A) (A)
       Virtual   (A) (A) (A) (A) (A) (A) (A) (A) (A) (A) (A) (A)
                 (A) (A) (A) (A) (A) (A) (A) (A) (A) (A) (A) (A)
                 (A) (A) (A) (A) (A) (A) (A) (A) (A) (A) (A) (A)
                 (A) (A) (A) (A) (A) (A) (A) (A) (A) (A) (A) (A)
                 (A) (A) (A) (A) (A) (A) (A) (A) (A) (A) (A) (A)
                 (A) (A) (A) (A) (A) (A) (A) (A) (A) (A) (A) (A)
                 (A) (A) (A) (A) (A) (A) (A) (A) (A) (A) (A) (A)
                 (A) (A) (A) (A) (A) (A) (A) (A) (A) (A) (A) (A)
                 (A) (A) (A) (A) (A) (A) (A) (A) (A) (A) (A) (A)
                 (A) (A) (A) (A) (A) (A) (A) (A) (A) (A) (A) (A)
                 (A) (A) (A) (A) (A) (A) (A) (A) (A) (A) (A) (A)
                 (A) (A) (A) (A) (A) (A) (A) (A) (A) (A) (A) (A)
                 (A) (A) (A) (A) (A) (A) (A) (A) (A) (A) (A) (A)
                 (A) (A) (A) (A) (A) (A) (A) (A) (A) (A) (A) (A)
                 (A) (A) (A) (A) (A) (A) (A) (A) (A) (A) (A) (A)
                 (A) (A) (A) (A) (A) (A) (A) (A) (A) (A) (A) (A)
                 (A) (A) (A) (A) (A) (A) (A) (A) (A) (A) (A) (A)
                 (A) (A) (A) (A) (A) (A) (A) (A) (A) (A) (A) (A)
                 (A) (A) (A) (A) (A) (A) (A) (A) (A) (A) (A) (A)
                 (A) (A) (A) (A) (A) (A) (A) (A) (A) (A) (A) (A)
                 (A) (A) (A) (A) (A) (A) (A) (A) (A) (A) (A) (A)
                 (A) (A) (A) (A) (A) (A) (A) (A) (A) (A) (A) (A)
                 (A) (A) (A) (A) (A) (A) (A) (A) (A) (A) (A) (A)
                 (A) (A) (A) (A) (A) (A) (A) (A) (A) (A) (A) (A)
                 (A) (A) (A) (A) (A) (A) (A) (A) (A) (A) (A) (A)
                 (A) (A) (A) (A) (A) (A) (A) (A) (A) (A) (A) (A)
                 (A) (A) (A) (A) (A) (A) (A) (A) (A) (A) (A) (A)
                 (A) (A) (A) (A) (A) (A) (A) (A) (A) (A) (A) (A)
                 (A) (A) (A) (A) (A) (A) (A) (A) (A) (A) (A) (A)
                 (A) (A) (A) (A) (A) (A) (A) (A) (A) (A) (A) (A)
                 (A) (A) (A) (A) (A) (A) (A) (A) (A) (A) (A) (A)
                 (A) (A) (A) (A) (A) (A) (A) (A) (A) (A) (A) (A)
                 (A) (A) (A) (A) (A) (A) (A) (A) (A) (A) (A) (A)
                 (A) (A) (A) (A) (A) (A) (A) (A) (A) (A) (A) (A)
                 (A) (A) (A) (A) (A) (A) (A) (A) (A) (A) (A) (A)
                 (A) (A) (A) (A) (A) (A) (A) (A) (A) (A) (A) (A)
                 (A) (A) (A) (A) (A) (A) (A) (A) (A) (A) (A) (A)
                 (A) (A) (A) (A) (A) (A) (A) (A) (A) (A) (A)
    40 initial guesses have been made.
 Convergence on wavefunction:    0.001000000000000
 Davidson Disk Diagonalization:  ConvIn= 1.00D-03 SkipCon=T Conv= 1.00D-03.
 Max sub-space:   200 roots to seek:    40 dimension of matrix:        53690
 Iteration     1 Dimension    40 NMult     0 NNew     40
 CISAX will form    40 AO SS matrices at one time.
 NMat=    40 NSing=    40 JSym2X= 0.
 FoFJK:  IHMeth= 1 ICntrl=       0 DoSepK=F KAlg= 0 I1Cent=   0 FoldK=F
 IRaf=         0 NMat=  80 IRICut=     100 DoRegI=T DoRafI=T ISym2E= 0.
 New state      2 was old state      3
 New state      3 was old state      2
 New state      7 was old state      8
 New state      8 was old state      7
 New state      9 was old state     11
 New state     10 was old state      9
 Excitation Energies [eV] at current iteration:
 Root      1 :     3.171634690349564
 Root      2 :     3.295951705543815
 Root      3 :     3.376456623613982
 Root      4 :     3.542755710419082
 Root      5 :     3.636537113022742
 Root      6 :     3.810491150218913
 Root      7 :     4.295591421705041
 Root      8 :     4.493505433847350
 Root      9 :     4.909164843522300
 Root     10 :     4.933396217998608
 Root     11 :     5.041462922396849
 Root     12 :     5.055149666405174
 Root     13 :     5.202676695778467
 Root     14 :     5.230816610329330
 Root     15 :     5.327939528415818
 Root     16 :     5.359979567403782
 Root     17 :     5.471289952756038
 Root     18 :     5.525721731907137
 Root     19 :     5.551729200911349
 Root     20 :     5.724621656472020
 Root     21 :     5.771502562816758
 Root     22 :     5.805669686669034
 Root     23 :     5.896966174814321
 Root     24 :     5.936106961798508
 Root     25 :     5.971591974373903
 Root     26 :     5.989035138822492
 Root     27 :     6.027053863670063
 Root     28 :     6.048444567453146
 Root     29 :     6.051499272799116
 Root     30 :     6.138795758726866
 Root     31 :     6.197613886132204
 Root     32 :     6.227362611771325
 Root     33 :     6.273350644501631
 Root     34 :     6.400678247829211
 Root     35 :     6.555936042343397
 Root     36 :     6.680857590490013
 Root     37 :     6.970449958574970
 Root     38 :     7.169968217942761
 Root     39 :     7.361023153250451
 Root     40 :     7.677832042350195
 Iteration     2 Dimension    60 NMult    40 NNew     20
 CISAX will form    20 AO SS matrices at one time.
 NMat=    20 NSing=    20 JSym2X= 0.
 Root      1 not converged, maximum delta is    0.118103080103554
 Root      2 not converged, maximum delta is    0.233432171906259
 Root      3 not converged, maximum delta is    0.229791174305840
 Root      4 not converged, maximum delta is    0.119239955186825
 Root      5 not converged, maximum delta is    0.120036138516442
 Root      6 not converged, maximum delta is    0.108710555638859
 Root      7 not converged, maximum delta is    0.143742814204887
 Root      8 not converged, maximum delta is    0.144806772012279
 Root      9 not converged, maximum delta is    0.433445090265950
 Root     10 not converged, maximum delta is    0.332401416908272
 Excitation Energies [eV] at current iteration:
 Root      1 :     2.829265775421151   Change is   -0.342368914928413
 Root      2 :     3.169677801981513   Change is   -0.126273903562302
 Root      3 :     3.248537360990994   Change is   -0.127919262622989
 Root      4 :     3.357098590417405   Change is   -0.185657120001677
 Root      5 :     3.452679535941771   Change is   -0.183857577080972
 Root      6 :     3.665978361686639   Change is   -0.144512788532274
 Root      7 :     4.234443616439584   Change is   -0.061147805265457
 Root      8 :     4.254443121916368   Change is   -0.239062311930982
 Root      9 :     4.822445824803423   Change is   -0.086719018718877
 Root     10 :     4.870111446877222   Change is   -0.063284771121386
 Iteration     3 Dimension    80 NMult    60 NNew     20
 CISAX will form    20 AO SS matrices at one time.
 NMat=    20 NSing=    20 JSym2X= 0.
 Root      1 not converged, maximum delta is    0.008421069980254
 Root      2 not converged, maximum delta is    0.012054216467900
 Root      3 not converged, maximum delta is    0.009577861795601
 Root      4 not converged, maximum delta is    0.006752354612707
 Root      5 not converged, maximum delta is    0.007838799433265
 Root      6 not converged, maximum delta is    0.013679371408034
 Root      7 not converged, maximum delta is    0.205555576230937
 Root      8 not converged, maximum delta is    0.226595379077095
 Root      9 not converged, maximum delta is    0.022752771843000
 Root     10 not converged, maximum delta is    0.027155112943223
 Excitation Energies [eV] at current iteration:
 Root      1 :     2.814019497917743   Change is   -0.015246277503408
 Root      2 :     3.162803793167393   Change is   -0.006874008814119
 Root      3 :     3.242435340367114   Change is   -0.006102020623879
 Root      4 :     3.350434989941571   Change is   -0.006663600475834
 Root      5 :     3.444766653975115   Change is   -0.007912881966656
 Root      6 :     3.655601342015387   Change is   -0.010377019671252
 Root      7 :     4.229449404165103   Change is   -0.004994212274480
 Root      8 :     4.239032131179698   Change is   -0.015410990736670
 Root      9 :     4.813694218032436   Change is   -0.008751606770987
 Root     10 :     4.865165689050739   Change is   -0.004945757826482
 Iteration     4 Dimension   100 NMult    80 NNew     20
 CISAX will form    20 AO SS matrices at one time.
 NMat=    20 NSing=    20 JSym2X= 0.
 Root      1 not converged, maximum delta is    0.001993408210752
 Root      2 not converged, maximum delta is    0.001268212003133
 Root      3 not converged, maximum delta is    0.001089118707279
 Root      4 has converged.
 Root      5 has converged.
 Root      6 not converged, maximum delta is    0.001748980198484
 Root      7 not converged, maximum delta is    0.041283076756618
 Root      8 not converged, maximum delta is    0.045348825050263
 Root      9 not converged, maximum delta is    0.006350448205042
 Root     10 not converged, maximum delta is    0.035100827027271
 Excitation Energies [eV] at current iteration:
 Root      1 :     2.812120603022982   Change is   -0.001898894894761
 Root      2 :     3.162337253728829   Change is   -0.000466539438564
 Root      3 :     3.241938191824551   Change is   -0.000497148542564
 Root      4 :     3.349962091974757   Change is   -0.000472897966814
 Root      5 :     3.444196912940643   Change is   -0.000569741034471
 Root      6 :     3.654786733883840   Change is   -0.000814608131546
 Root      7 :     4.228691108070693   Change is   -0.000758296094410
 Root      8 :     4.237553380646792   Change is   -0.001478750532906
 Root      9 :     4.812518088129182   Change is   -0.001176129903254
 Root     10 :     4.863963590170485   Change is   -0.001202098880254
 Iteration     5 Dimension   116 NMult   100 NNew     16
 CISAX will form    16 AO SS matrices at one time.
 NMat=    16 NSing=    16 JSym2X= 0.
 Root      1 has converged.
 Root      2 has converged.
 Root      3 has converged.
 Root      4 has converged.
 Root      5 has converged.
 Root      6 has converged.
 Root      7 not converged, maximum delta is    0.003283551320947
 Root      8 not converged, maximum delta is    0.003672429474602
 Root      9 has converged.
 Root     10 not converged, maximum delta is    0.016194074079153
 Excitation Energies [eV] at current iteration:
 Root      1 :     2.812044084854346   Change is   -0.000076518168636
 Root      2 :     3.162311727404331   Change is   -0.000025526324498
 Root      3 :     3.241916804593602   Change is   -0.000021387230949
 Root      4 :     3.349958454364128   Change is   -0.000003637610628
 Root      5 :     3.444173548447451   Change is   -0.000023364493193
 Root      6 :     3.654721062604923   Change is   -0.000065671278917
 Root      7 :     4.228621116986690   Change is   -0.000069991084003
 Root      8 :     4.237454856630345   Change is   -0.000098524016447
 Root      9 :     4.812421456987977   Change is   -0.000096631141205
 Root     10 :     4.863676875274641   Change is   -0.000286714895844
 Iteration     6 Dimension   122 NMult   116 NNew      6
 CISAX will form     6 AO SS matrices at one time.
 NMat=     6 NSing=     6 JSym2X= 0.
 Root      1 has converged.
 Root      2 has converged.
 Root      3 has converged.
 Root      4 has converged.
 Root      5 has converged.
 Root      6 has converged.
 Root      7 has converged.
 Root      8 has converged.
 Root      9 has converged.
 Root     10 not converged, maximum delta is    0.004085606694146
 Excitation Energies [eV] at current iteration:
 Root      1 :     2.812042065043288   Change is   -0.000002019811058
 Root      2 :     3.162311615201439   Change is   -0.000000112202892
 Root      3 :     3.241916755953071   Change is   -0.000000048640531
 Root      4 :     3.349957733062325   Change is   -0.000000721301803
 Root      5 :     3.444170703169987   Change is   -0.000002845277463
 Root      6 :     3.654719027929811   Change is   -0.000002034675112
 Root      7 :     4.228616413449640   Change is   -0.000004703537050
 Root      8 :     4.237448163702988   Change is   -0.000006692927357
 Root      9 :     4.812419027307957   Change is   -0.000002429680019
 Root     10 :     4.863632301676326   Change is   -0.000044573598316
 Iteration     7 Dimension   124 NMult   122 NNew      2
 CISAX will form     2 AO SS matrices at one time.
 NMat=     2 NSing=     2 JSym2X= 0.
 Root      1 has converged.
 Root      2 has converged.
 Root      3 has converged.
 Root      4 has converged.
 Root      5 has converged.
 Root      6 has converged.
 Root      7 has converged.
 Root      8 has converged.
 Root      9 has converged.
 Root     10 has converged.
 Excitation Energies [eV] at current iteration:
 Root      1 :     2.812041927925697   Change is   -0.000000137117592
 Root      2 :     3.162311608003531   Change is   -0.000000007197907
 Root      3 :     3.241916748317035   Change is   -0.000000007636036
 Root      4 :     3.349957535455503   Change is   -0.000000197606823
 Root      5 :     3.444170209279760   Change is   -0.000000493890227
 Root      6 :     3.654718925327491   Change is   -0.000000102602320
 Root      7 :     4.228616391717516   Change is   -0.000000021732123
 Root      8 :     4.237448145238693   Change is   -0.000000018464295
 Root      9 :     4.812419009448667   Change is   -0.000000017859291
 Root     10 :     4.863626702733076   Change is   -0.000005598943249
 Convergence achieved on expansion vectors.
 ***********************************************************************
 Excited states from <AA,BB:AA,BB> singles matrix:
 ***********************************************************************
 
 1PDM for each excited state written to RWF  633
 Ground to excited state transition densities written to RWF  633
 Ground to excited state transition electric dipole moments (Au):
       state          X           Y           Z        Dip. S.      Osc.
         1        -2.9568      1.0930      0.2256      9.9880      0.6881
         2         0.7436      1.2922     -0.1145      2.2358      0.1732
         3         0.6087      0.6426     -0.2174      0.8307      0.0660
         4        -0.0276      0.2049      0.0357      0.0440      0.0036
         5        -0.4766     -0.4264      0.2126      0.4542      0.0383
         6        -0.4357     -0.6870     -0.2535      0.7261      0.0650
         7        -0.6504     -0.2471      0.2041      0.5258      0.0545
         8        -0.4326      0.0587      0.0197      0.1909      0.0198
         9        -0.0729     -0.2470      0.0507      0.0689      0.0081
        10        -0.1970     -0.0268     -0.0688      0.0443      0.0053
 Ground to excited state transition velocity dipole moments (Au):
       state          X           Y           Z        Dip. S.      Osc.
         1         0.2945     -0.1093     -0.0207      0.0991      0.6393
         2        -0.0847     -0.1473      0.0126      0.0290      0.1666
         3        -0.0655     -0.0752      0.0254      0.0106      0.0592
         4         0.0048     -0.0203     -0.0048      0.0005      0.0025
         5         0.0595      0.0508     -0.0275      0.0069      0.0362
         6         0.0575      0.0889      0.0334      0.0123      0.0612
         7         0.0969      0.0345     -0.0321      0.0116      0.0498
         8         0.0657     -0.0097     -0.0044      0.0044      0.0190
         9         0.0150      0.0454     -0.0079      0.0023      0.0089
        10         0.0321      0.0064      0.0129      0.0012      0.0046
 Ground to excited state transition magnetic dipole moments (Au):
       state          X           Y           Z
         1         0.0265     -0.2555      0.0310
         2        -0.4606     -0.0900      0.2011
         3         0.3574     -0.0508      0.3005
         4        -0.0183      0.3705      0.0863
         5         0.1189     -0.0450      0.7194
         6        -0.1264      0.0205     -0.2684
         7         0.2105     -0.1094      0.0711
         8        -0.0762     -0.0265      0.2362
         9         0.1430     -0.2248     -0.0077
        10         0.1523      0.1278     -0.1147
 Ground to excited state transition velocity quadrupole moments (Au):
       state          XX          YY          ZZ          XY          XZ          YZ
         1        -0.7030      0.5349     -0.0124     -1.0286     -0.0514      0.0695
         2         0.7600     -0.4166     -0.0927     -0.1682     -0.0606      0.1333
         3         0.6112     -0.3808     -0.0873      0.1101     -0.0457      0.2019
         4         0.2872     -0.1955     -0.0006     -0.2129     -0.0985      0.0569
         5        -0.5611      0.0765      0.1337      0.1398      0.1148     -0.0353
         6        -0.8276     -0.0378      0.1568      0.1361      0.1780     -0.0088
         7        -0.7980      0.0005      0.0472     -0.2242     -0.0387     -0.0373
         8         0.4830      0.3369      0.0505     -0.3079     -0.0844      0.0070
         9         0.2101      0.3919     -0.0370      0.2003     -0.0763      0.0126
        10        -0.1229      0.0063      0.0808     -0.2127      0.0038      0.0154
 <0|del|b> * <b|rxdel|0> + <0|del|b> * <b|delr+rdel|0>
 Rotatory Strengths (R) in cgs (10**-40 erg-esu-cm/Gauss)
       state          XX          YY          ZZ    R(velocity)    E-M Angle
         1       147.0715     21.6507     71.5076     80.0766       64.47
         2        14.3956     98.4996    220.5257    111.1403       50.97
         3        32.1387    -94.3462     -8.6983    -23.6353      104.31
         4       -25.6132     -3.6288    -16.8993    -15.3804      169.90
         5       -88.7480    -30.7011     35.5324    -27.9722      104.36
         6       -48.4979    -56.0745     28.6377    -25.3116      115.90
         7         5.6279     16.6171     43.0092     21.7514       57.51
         8        -0.5591    -15.7137     -9.9830     -8.7520      110.37
         9       -16.5037      7.9496    -23.4119    -10.6554      128.24
        10        -6.7612     13.1388     10.3570      5.5782       58.39
 1/2[<0|r|b>*<b|rxdel|0> + (<0|rxdel|b>*<b|r|0>)*]
 Rotatory Strengths (R) in cgs (10**-40 erg-esu-cm/Gauss)
       state          XX          YY          ZZ     R(length)
         1        55.4556    197.5045     -4.9432     82.6723
         2       242.2200     82.1985     16.2767    113.5651
         3      -153.8287     23.1050     46.1901    -28.1779
         4        -0.3562    -53.6785     -2.1825    -18.7390
         5        40.0581    -13.5576   -108.1796    -27.2264
         6       -38.9557      9.9722    -48.1133    -25.6989
         7        96.8283    -19.1196    -10.2594     22.4831
         8       -23.3176      1.1022     -3.2972     -8.5042
         9         7.3726    -39.2640      0.2776    -10.5379
        10        21.2111      2.4224     -5.5802      6.0178
  1/2[<0|del|b>*<b|r|0> + (<0|r|b>*<b|del|0>)*] (Au)
       state          X           Y           Z        Dip. S.   Osc.(frdel)
         1        -0.8707     -0.1195     -0.0047      0.9949      0.6633
         2        -0.0630     -0.1904     -0.0014      0.2548      0.1699
         3        -0.0399     -0.0483     -0.0055      0.0937      0.0625
         4        -0.0001     -0.0042     -0.0002      0.0045      0.0030
         5        -0.0283     -0.0216     -0.0059      0.0558      0.0372
         6        -0.0251     -0.0611     -0.0085      0.0946      0.0631
         7        -0.0630     -0.0085     -0.0066      0.0781      0.0521
         8        -0.0284     -0.0006     -0.0001      0.0291      0.0194
         9        -0.0011     -0.0112     -0.0004      0.0127      0.0085
        10        -0.0063     -0.0002     -0.0009      0.0074      0.0049

 Excitation energies and oscillator strengths:
 
 Excited State   1:      Singlet-A      2.8120 eV  440.90 nm  f=0.6881  <S**2>=0.000
      83 -> 84         0.70311
 This state for optimization and/or second-order correction.
 Total Energy, E(TD-HF/TD-KS) =  -1071.87339800    
 Copying the excited state density for this state as the 1-particle RhoCI density.
 
 Excited State   2:      Singlet-A      3.1623 eV  392.07 nm  f=0.1732  <S**2>=0.000
      78 -> 84         0.10237
      79 -> 84         0.16103
      80 -> 84        -0.10471
      81 -> 84        -0.28119
      82 -> 84         0.60633
 
 Excited State   3:      Singlet-A      3.2419 eV  382.44 nm  f=0.0660  <S**2>=0.000
      81 -> 84         0.64379
      82 -> 84         0.24940
 
 Excited State   4:      Singlet-A      3.3500 eV  370.11 nm  f=0.0036  <S**2>=0.000
      79 -> 84         0.26758
      80 -> 84         0.64492
 
 Excited State   5:      Singlet-A      3.4442 eV  359.98 nm  f=0.0383  <S**2>=0.000
      78 -> 84        -0.25836
      79 -> 84         0.59258
      80 -> 84        -0.20637
      82 -> 84        -0.16096
 
 Excited State   6:      Singlet-A      3.6547 eV  339.24 nm  f=0.0650  <S**2>=0.000
      77 -> 84         0.22277
      78 -> 84         0.61458
      79 -> 84         0.14585
      80 -> 84        -0.11980
      82 -> 84        -0.16288
 
 Excited State   7:      Singlet-A      4.2286 eV  293.20 nm  f=0.0545  <S**2>=0.000
      77 -> 84        -0.39572
      83 -> 85         0.55325
 
 Excited State   8:      Singlet-A      4.2374 eV  292.59 nm  f=0.0198  <S**2>=0.000
      77 -> 84         0.50486
      78 -> 84        -0.13478
      83 -> 85         0.43174
 
 Excited State   9:      Singlet-A      4.8124 eV  257.63 nm  f=0.0081  <S**2>=0.000
      77 -> 85        -0.16662
      79 -> 85        -0.20731
      81 -> 85         0.22189
      81 -> 86        -0.11238
      82 -> 85         0.56162
 
 Excited State  10:      Singlet-A      4.8636 eV  254.92 nm  f=0.0053  <S**2>=0.000
      76 -> 84         0.66281
      79 -> 85         0.15493
 SavETr:  write IOETrn=   770 NScale= 10 NData=  16 NLR=1 NState=   10 LETran=     190.
 Leave Link  914 at Thu Jan  7 11:01:50 2021, MaxMem=   786432000 cpu:     19286.7
 (Enter /opt/QChem/g09/l601.exe)
 Copying SCF densities to generalized density rwf, IOpCl= 0 IROHF=0.

 **********************************************************************

            Population analysis using the SCF density.

 **********************************************************************

 Orbital symmetries:
       Occupied  (A) (A) (A) (A) (A) (A) (A) (A) (A) (A) (A) (A)
                 (A) (A) (A) (A) (A) (A) (A) (A) (A) (A) (A) (A)
                 (A) (A) (A) (A) (A) (A) (A) (A) (A) (A) (A) (A)
                 (A) (A) (A) (A) (A) (A) (A) (A) (A) (A) (A) (A)
                 (A) (A) (A) (A) (A) (A) (A) (A) (A) (A) (A) (A)
                 (A) (A) (A) (A) (A) (A) (A) (A) (A) (A) (A) (A)
                 (A) (A) (A) (A) (A) (A) (A) (A) (A) (A) (A)
       Virtual   (A) (A) (A) (A) (A) (A) (A) (A) (A) (A) (A) (A)
                 (A) (A) (A) (A) (A) (A) (A) (A) (A) (A) (A) (A)
                 (A) (A) (A) (A) (A) (A) (A) (A) (A) (A) (A) (A)
                 (A) (A) (A) (A) (A) (A) (A) (A) (A) (A) (A) (A)
                 (A) (A) (A) (A) (A) (A) (A) (A) (A) (A) (A) (A)
                 (A) (A) (A) (A) (A) (A) (A) (A) (A) (A) (A) (A)
                 (A) (A) (A) (A) (A) (A) (A) (A) (A) (A) (A) (A)
                 (A) (A) (A) (A) (A) (A) (A) (A) (A) (A) (A) (A)
                 (A) (A) (A) (A) (A) (A) (A) (A) (A) (A) (A) (A)
                 (A) (A) (A) (A) (A) (A) (A) (A) (A) (A) (A) (A)
                 (A) (A) (A) (A) (A) (A) (A) (A) (A) (A) (A) (A)
                 (A) (A) (A) (A) (A) (A) (A) (A) (A) (A) (A) (A)
                 (A) (A) (A) (A) (A) (A) (A) (A) (A) (A) (A) (A)
                 (A) (A) (A) (A) (A) (A) (A) (A) (A) (A) (A) (A)
                 (A) (A) (A) (A) (A) (A) (A) (A) (A) (A) (A) (A)
                 (A) (A) (A) (A) (A) (A) (A) (A) (A) (A) (A) (A)
                 (A) (A) (A) (A) (A) (A) (A) (A) (A) (A) (A) (A)
                 (A) (A) (A) (A) (A) (A) (A) (A) (A) (A) (A) (A)
                 (A) (A) (A) (A) (A) (A) (A) (A) (A) (A) (A) (A)
                 (A) (A) (A) (A) (A) (A) (A) (A) (A) (A) (A) (A)
                 (A) (A) (A) (A) (A) (A) (A) (A) (A) (A) (A) (A)
                 (A) (A) (A) (A) (A) (A) (A) (A) (A) (A) (A) (A)
                 (A) (A) (A) (A) (A) (A) (A) (A) (A) (A) (A) (A)
                 (A) (A) (A) (A) (A) (A) (A) (A) (A) (A) (A) (A)
                 (A) (A) (A) (A) (A) (A) (A) (A) (A) (A) (A) (A)
                 (A) (A) (A) (A) (A) (A) (A) (A) (A) (A) (A) (A)
                 (A) (A) (A) (A) (A) (A) (A) (A) (A) (A) (A) (A)
                 (A) (A) (A) (A) (A) (A) (A) (A) (A) (A) (A) (A)
                 (A) (A) (A) (A) (A) (A) (A) (A) (A) (A) (A) (A)
                 (A) (A) (A) (A) (A) (A) (A) (A) (A) (A) (A) (A)
                 (A) (A) (A) (A) (A) (A) (A) (A) (A) (A) (A) (A)
                 (A) (A) (A) (A) (A) (A) (A) (A) (A) (A) (A) (A)
                 (A) (A) (A) (A) (A) (A) (A) (A) (A) (A) (A) (A)
                 (A) (A) (A) (A) (A) (A) (A) (A) (A) (A) (A) (A)
                 (A) (A) (A) (A) (A) (A) (A) (A) (A) (A) (A) (A)
                 (A) (A) (A) (A) (A) (A) (A) (A) (A) (A) (A) (A)
                 (A) (A) (A) (A) (A) (A) (A) (A) (A) (A) (A) (A)
                 (A) (A) (A) (A) (A) (A) (A) (A) (A) (A) (A)
 The electronic state is 1-A.
 Alpha  occ. eigenvalues --  -19.22923 -19.22715 -19.22577 -19.17338 -10.35462
 Alpha  occ. eigenvalues --  -10.30583 -10.30306 -10.28713 -10.24891 -10.24526
 Alpha  occ. eigenvalues --  -10.24295 -10.24148 -10.23960 -10.23895 -10.23795
 Alpha  occ. eigenvalues --  -10.23629 -10.23054 -10.22878 -10.22765 -10.22634
 Alpha  occ. eigenvalues --  -10.22607 -10.22544 -10.22451 -10.22307  -1.13492
 Alpha  occ. eigenvalues --   -1.11024  -1.10787  -1.04495  -0.92122  -0.89294
 Alpha  occ. eigenvalues --   -0.89011  -0.84262  -0.80034  -0.79519  -0.78997
 Alpha  occ. eigenvalues --   -0.77978  -0.77773  -0.71743  -0.68786  -0.67058
 Alpha  occ. eigenvalues --   -0.66067  -0.64772  -0.63882  -0.62656  -0.59743
 Alpha  occ. eigenvalues --   -0.58583  -0.58327  -0.55796  -0.54533  -0.53020
 Alpha  occ. eigenvalues --   -0.51401  -0.50929  -0.50023  -0.49290  -0.48045
 Alpha  occ. eigenvalues --   -0.47488  -0.47248  -0.46855  -0.46131  -0.46082
 Alpha  occ. eigenvalues --   -0.46005  -0.45231  -0.44983  -0.43977  -0.42940
 Alpha  occ. eigenvalues --   -0.42572  -0.41632  -0.40699  -0.39832  -0.39272
 Alpha  occ. eigenvalues --   -0.38618  -0.38279  -0.37659  -0.37217  -0.36739
 Alpha  occ. eigenvalues --   -0.34817  -0.31996  -0.30087  -0.29527  -0.29258
 Alpha  occ. eigenvalues --   -0.28802  -0.28199  -0.25652
 Alpha virt. eigenvalues --   -0.14396  -0.07925  -0.05332  -0.04368  -0.03905
 Alpha virt. eigenvalues --   -0.03750  -0.01409  -0.00718  -0.00463   0.00163
 Alpha virt. eigenvalues --    0.00845   0.00897   0.01280   0.01668   0.01826
 Alpha virt. eigenvalues --    0.02036   0.02452   0.03601   0.03792   0.04078
 Alpha virt. eigenvalues --    0.04524   0.05126   0.05403   0.05939   0.06819
 Alpha virt. eigenvalues --    0.07217   0.07508   0.07639   0.08291   0.08723
 Alpha virt. eigenvalues --    0.08868   0.09063   0.09394   0.09507   0.09923
 Alpha virt. eigenvalues --    0.10460   0.10664   0.10779   0.10914   0.11144
 Alpha virt. eigenvalues --    0.11259   0.11708   0.11959   0.12174   0.12490
 Alpha virt. eigenvalues --    0.12694   0.12745   0.13013   0.13218   0.13355
 Alpha virt. eigenvalues --    0.13587   0.13815   0.14032   0.14345   0.14548
 Alpha virt. eigenvalues --    0.14846   0.14942   0.15736   0.15891   0.16114
 Alpha virt. eigenvalues --    0.16280   0.16791   0.16949   0.17232   0.17434
 Alpha virt. eigenvalues --    0.17816   0.18102   0.18515   0.18548   0.18765
 Alpha virt. eigenvalues --    0.19599   0.19853   0.20005   0.20528   0.20821
 Alpha virt. eigenvalues --    0.21159   0.21504   0.21748   0.21871   0.22209
 Alpha virt. eigenvalues --    0.22556   0.23280   0.23437   0.23707   0.23941
 Alpha virt. eigenvalues --    0.24296   0.24511   0.24639   0.24795   0.25236
 Alpha virt. eigenvalues --    0.25392   0.25621   0.25800   0.26063   0.26347
 Alpha virt. eigenvalues --    0.26595   0.27385   0.27578   0.27730   0.27808
 Alpha virt. eigenvalues --    0.28237   0.28858   0.28904   0.29095   0.29239
 Alpha virt. eigenvalues --    0.29799   0.29919   0.29989   0.30449   0.30748
 Alpha virt. eigenvalues --    0.31030   0.31317   0.31489   0.32153   0.32396
 Alpha virt. eigenvalues --    0.32554   0.33111   0.33294   0.33929   0.34128
 Alpha virt. eigenvalues --    0.34391   0.35005   0.35305   0.35785   0.36055
 Alpha virt. eigenvalues --    0.36179   0.36880   0.37346   0.37447   0.37566
 Alpha virt. eigenvalues --    0.38505   0.38598   0.38661   0.39220   0.39784
 Alpha virt. eigenvalues --    0.40029   0.40440   0.40613   0.41555   0.41665
 Alpha virt. eigenvalues --    0.42721   0.43126   0.43599   0.44130   0.45893
 Alpha virt. eigenvalues --    0.46220   0.47369   0.49242   0.53152   0.55625
 Alpha virt. eigenvalues --    0.56240   0.57897   0.59420   0.59612   0.61164
 Alpha virt. eigenvalues --    0.64869   0.66410   0.67047   0.68402   0.68743
 Alpha virt. eigenvalues --    0.69313   0.69720   0.70620   0.71120   0.71565
 Alpha virt. eigenvalues --    0.71812   0.72015   0.73676   0.73892   0.74178
 Alpha virt. eigenvalues --    0.74612   0.74777   0.75293   0.76211   0.76487
 Alpha virt. eigenvalues --    0.77307   0.78138   0.78882   0.79459   0.79811
 Alpha virt. eigenvalues --    0.80433   0.81291   0.82160   0.82577   0.84023
 Alpha virt. eigenvalues --    0.84508   0.85399   0.85913   0.86278   0.87177
 Alpha virt. eigenvalues --    0.88842   0.88926   0.90452   0.90813   0.92252
 Alpha virt. eigenvalues --    0.93076   0.94670   0.96074   0.97369   0.97810
 Alpha virt. eigenvalues --    0.98436   0.98579   1.00251   1.00451   1.00847
 Alpha virt. eigenvalues --    1.01780   1.02079   1.03303   1.03470   1.03725
 Alpha virt. eigenvalues --    1.04504   1.05553   1.06226   1.07543   1.08920
 Alpha virt. eigenvalues --    1.10116   1.11741   1.12100   1.12486   1.13224
 Alpha virt. eigenvalues --    1.13982   1.14787   1.15060   1.16046   1.17345
 Alpha virt. eigenvalues --    1.17470   1.17735   1.18479   1.18682   1.18837
 Alpha virt. eigenvalues --    1.19354   1.20770   1.21564   1.21943   1.23047
 Alpha virt. eigenvalues --    1.23227   1.23869   1.25450   1.25700   1.26584
 Alpha virt. eigenvalues --    1.27358   1.27742   1.28507   1.29122   1.29688
 Alpha virt. eigenvalues --    1.30546   1.32134   1.32589   1.32944   1.33937
 Alpha virt. eigenvalues --    1.34612   1.35169   1.35473   1.36854   1.37362
 Alpha virt. eigenvalues --    1.37772   1.38080   1.38367   1.38512   1.39450
 Alpha virt. eigenvalues --    1.39896   1.40334   1.40514   1.41391   1.42337
 Alpha virt. eigenvalues --    1.43221   1.44388   1.47217   1.47691   1.48280
 Alpha virt. eigenvalues --    1.50241   1.51467   1.52608   1.52732   1.56676
 Alpha virt. eigenvalues --    1.57009   1.58021   1.59306   1.62488   1.62753
 Alpha virt. eigenvalues --    1.65380   1.67243   1.72093   1.72609   1.73433
 Alpha virt. eigenvalues --    1.75348   1.76432   1.77304   1.77946   1.78813
 Alpha virt. eigenvalues --    1.80475   1.80827   1.82857   1.83653   1.85879
 Alpha virt. eigenvalues --    1.87024   1.87694   1.88095   1.88501   1.89615
 Alpha virt. eigenvalues --    1.90386   1.90763   1.90947   1.91272   1.91959
[...]
    38  O    0.032936  -0.004027   0.005241   0.000001   0.000363   0.003441
    39  H   -0.000345   0.000244   0.001115  -0.000025  -0.000193  -0.007363
              13         14         15         16         17         18
     1  C   -1.072395  -0.541056  -0.696149  -0.116717   0.007500  -0.063972
     2  C    0.551576  -2.717409   0.770016  -0.094461   0.272946  -0.031717
     3  C   -0.877781   3.155976  -0.737110   0.165039  -0.159929   0.037431
     4  C    1.013585  -2.608473   0.648273  -0.100658   0.034415  -0.026614
     5  C    0.385613   0.109887   0.195424   0.001266   0.029327   0.011963
     6  H    0.009721   0.030043  -0.043521  -0.020594  -0.003828  -0.001930
     7  C    0.152019  -0.253913   0.060575  -0.005786   0.011766  -0.004189
     8  H    0.047398  -0.035001   0.020963  -0.001771  -0.005486   0.000434
     9  C    0.023503   0.059520  -0.006081  -0.005783  -0.019211   0.004815
    10  H    0.002436  -0.008650   0.003241  -0.000164   0.001072  -0.000259
    11  H   -0.002839   0.002813  -0.000442   0.000662   0.000554  -0.000131
    12  C   -0.896021   4.495959  -2.942457  -0.002236  -1.457561   0.001001
    13  C    8.004626  -0.791744  -0.103540   0.410509   0.347785   0.036732
    14  C   -0.791744  10.192062  -0.312491   0.102230  -1.046496   0.410245
    15  C   -0.103540  -0.312491  10.155585  -0.040295  -1.679205   0.082126
    16  H    0.410509   0.102230  -0.040295   0.639503   0.035287  -0.000333
    17  C    0.347785  -1.046496  -1.679205   0.035287   9.134994  -0.172799
    18  H    0.036732   0.410245   0.082126  -0.000333  -0.172799   0.627766
    19  C   -0.313064   0.463852   0.428919   0.037388   0.511102   0.022677
    20  H   -0.033909   0.025429   0.439122  -0.018915  -0.034028   0.002714
    21  H    0.022840  -0.047776  -0.007495   0.001777   0.361848  -0.025286
    22  C    0.536110  -3.649543   0.544425  -0.069167  -0.073419   0.022876
    23  C   -0.400763  -1.413071   0.078961  -0.039058  -0.126501  -0.028041
    24  C   -0.826349   1.330001  -0.369344  -0.042851   0.022595   0.015387
    25  C   -0.396933   0.348212  -0.035526  -0.008867  -0.032185  -0.010697
    26  C    0.242766  -0.392810  -0.024052  -0.013542   0.145376  -0.054577
    27  H   -0.049841  -0.013900  -0.002307  -0.007658  -0.040464   0.004088
    28  C   -0.079020   0.054421  -0.010256  -0.002158  -0.056701   0.016723
    29  H   -0.000408   0.005759  -0.000251   0.000003   0.001527  -0.000678
    30  H    0.007273  -0.017117   0.000917   0.000139   0.001652  -0.001690
    31  H   -0.002742   0.001099  -0.000481  -0.000044  -0.000719  -0.000028
    32  O    0.003323  -0.000435   0.001023   0.000610   0.000058  -0.000021
    33  H   -0.000520   0.000180  -0.000282  -0.000069  -0.000020   0.000014
    34  O   -0.023850  -0.007825  -0.372289  -0.002903   0.088777  -0.002992
    35  H    0.005433   0.010737   0.085444   0.000211  -0.121075   0.001454
    36  C    0.152416  -0.687445  -0.014426  -0.004557  -0.027126  -0.053435
    37  O    0.007147  -0.019354   0.003940   0.001779   0.020675  -0.003268
    38  O    0.003927   0.006472   0.000585   0.000239   0.003260   0.001682
    39  H    0.000694  -0.002842   0.000059  -0.000010  -0.000149  -0.000139
              19         20         21         22         23         24
     1  C   -0.758486   0.006957   0.020357  -1.634606  -5.016946   0.321038
     2  C   -0.679136  -0.001142   0.005374   4.202652  -0.080919  -0.472800
     3  C    0.569362  -0.002827  -0.001784  -8.967094  -4.061548   1.511540
     4  C   -0.308609   0.004078   0.002565   8.222285   5.219621  -2.644004
     5  C    0.020494   0.004170  -0.000226   0.430034   0.095609  -0.210763
     6  H   -0.001408   0.001881   0.000101  -0.127092  -0.059011   0.041228
     7  C   -0.024444   0.000533   0.000325   0.758998   0.591966  -0.442370
     8  H    0.000176  -0.000054   0.000005   0.132811   0.149969  -0.107076
     9  C    0.014880   0.001352  -0.000253  -0.429423  -0.099542  -0.080082
    10  H   -0.001068  -0.000236   0.000018   0.032391   0.013480  -0.001411
    11  H   -0.000117  -0.000013   0.000003  -0.007706  -0.013162   0.009139
    12  C    0.092826  -0.007929   0.009277  -8.866894  -4.322625   2.236635
    13  C   -0.313064  -0.033909   0.022840   0.536110  -0.400763  -0.826349
    14  C    0.463852   0.025429  -0.047776  -3.649543  -1.413071   1.330001
    15  C    0.428919   0.439122  -0.007495   0.544425   0.078961  -0.369344
    16  H    0.037388  -0.018915   0.001777  -0.069167  -0.039058  -0.042851
    17  C    0.511102  -0.034028   0.361848  -0.073419  -0.126501   0.022595
    18  H    0.022677   0.002714  -0.025286   0.022876  -0.028041   0.015387
    19  C    6.863789  -0.104545  -0.065980  -0.771443  -0.192187   0.203305
    20  H   -0.104545   0.564042  -0.002934   0.002635   0.002821  -0.002040
    21  H   -0.065980  -0.002934   0.586998   0.008078  -0.002537  -0.011133
    22  C   -0.771443   0.002635   0.008078  20.023690   4.672197  -4.673345
    23  C   -0.192187   0.002821  -0.002537   4.672197  19.809160  -3.289855
    24  C    0.203305  -0.002040  -0.011133  -4.673345  -3.289855  12.787605
    25  C    0.012850   0.000546  -0.003038  -4.021960  -3.398859   3.783839
    26  C   -0.031135  -0.000574   0.006820  -1.569895   1.952003  -1.353278
    27  H   -0.019367   0.000788  -0.001467   0.074757   0.101449   0.389972
    28  C    0.002528   0.000070  -0.002150   2.270724  -1.383927  -0.913404
    29  H    0.000360  -0.000006   0.000009   0.011546  -0.071095   0.031136
    30  H   -0.001047  -0.000026   0.000360  -0.070366   0.112931  -0.088168
    31  H    0.000009   0.000002  -0.000041   0.082370  -0.026462  -0.000129
    32  O    0.000008   0.000002   0.000001   0.004475   0.001482  -0.000557
    33  H   -0.000029   0.000012   0.000000  -0.001249  -0.000054  -0.000097
    34  O    0.246562  -0.029309  -0.020933   0.006651   0.000422   0.000262
    35  H    0.027315   0.001371  -0.001936  -0.002041  -0.000619   0.000114
    36  C   -0.083559   0.000412   0.009497  -1.263260  -2.535500  -0.771778
    37  O    0.000960   0.000036  -0.000246   0.009086  -0.165056  -0.126363
    38  O    0.000156   0.000004  -0.000030   0.041575   0.120916  -0.034192
    39  H   -0.000296   0.000003   0.000033   0.006890   0.002582  -0.002466
              25         26         27         28         29         30
     1  C   -1.397362  -0.330680  -0.046542  -0.062031   0.016215   0.000092
     2  C   -0.439314  -0.188186   0.016922   0.146300   0.002039  -0.010583
     3  C    0.328584  -0.334045  -0.086935  -0.005485   0.002036  -0.004584
     4  C   -0.529432   0.669667   0.065407  -0.121737  -0.010963   0.020251
     5  C   -0.076030   0.030169  -0.001468  -0.010039  -0.000044   0.000312
     6  H    0.006999   0.003361  -0.001682  -0.004588   0.000148   0.000120
     7  C   -0.071910   0.181361  -0.008880  -0.093719  -0.004256   0.006184
     8  H   -0.088684   0.048098  -0.004094  -0.013804  -0.000369   0.001345
     9  C   -0.041818  -0.017072  -0.002944   0.012844  -0.001740   0.000036
    10  H    0.000273   0.000389   0.000256   0.000007   0.000012   0.000002
    11  H    0.009951   0.000363   0.000019  -0.002888   0.000212   0.000053
    12  C    0.003194  -0.889517  -0.041440   0.404265  -0.002488  -0.030826
    13  C   -0.396933   0.242766  -0.049841  -0.079020  -0.000408   0.007273
    14  C    0.348212  -0.392810  -0.013900   0.054421   0.005759  -0.017117
    15  C   -0.035526  -0.024052  -0.002307  -0.010256  -0.000251   0.000917
    16  H   -0.008867  -0.013542  -0.007658  -0.002158   0.000003   0.000139
    17  C   -0.032185   0.145376  -0.040464  -0.056701   0.001527   0.001652
    18  H   -0.010697  -0.054577   0.004088   0.016723  -0.000678  -0.001690
    19  C    0.012850  -0.031135  -0.019367   0.002528   0.000360  -0.001047
    20  H    0.000546  -0.000574   0.000788   0.000070  -0.000006  -0.000026
    21  H   -0.003038   0.006820  -0.001467  -0.002150   0.000009   0.000360
    22  C   -4.021960  -1.569895   0.074757   2.270724   0.011546  -0.070366
    23  C   -3.398859   1.952003   0.101449  -1.383927  -0.071095   0.112931
    24  C    3.783839  -1.353278   0.389972  -0.913404   0.031136  -0.088168
    25  C   13.926255  -1.225912   0.058976  -0.797498   0.358957   0.012003
    26  C   -1.225912   9.265782  -0.189994  -1.186727   0.017999   0.477327
    27  H    0.058976  -0.189994   0.607218   0.052205   0.001452  -0.020754
    28  C   -0.797498  -1.186727   0.052205   9.402448  -0.036878  -0.154390
    29  H    0.358957   0.017999   0.001452  -0.036878   0.568612  -0.002883
    30  H    0.012003   0.477327  -0.020754  -0.154390  -0.002883   0.580213
    31  H   -0.084379  -0.123543  -0.000953   0.495687  -0.014341  -0.014988
    32  O    0.000131   0.000104  -0.000035  -0.000046  -0.000003   0.000003
    33  H   -0.000003  -0.000077  -0.000007   0.000018  -0.000003   0.000000
    34  O   -0.000003   0.000415   0.000558   0.000042  -0.000001  -0.000012
    35  H   -0.000112   0.000070  -0.000175  -0.000014   0.000000   0.000005
    36  C   -0.359575   1.096400  -0.018600  -1.658535  -0.061004   0.033703
    37  O   -0.081201  -0.003295  -0.000480   0.036207  -0.001512  -0.000215
    38  O   -0.052680  -0.002025  -0.000368   0.094178  -0.008586   0.000192
    39  H   -0.021331   0.004339   0.000072  -0.013816   0.000720   0.000063
              31         32         33         34         35         36
     1  C   -0.001872  -0.006853   0.000223   0.008625  -0.002807  -0.260813
     2  C    0.000918   0.051653  -0.006859   0.001291  -0.001479  -0.159068
     3  C   -0.000690  -0.016944   0.019188   0.000372   0.001136  -0.429917
     4  C   -0.002325  -0.003878  -0.001709   0.000790  -0.000572   0.934358
     5  C   -0.000409   0.091785  -0.139108   0.000770   0.000104   0.069547
     6  H   -0.000079  -0.003176   0.001374   0.000627   0.000071  -0.003707
     7  C   -0.001762  -0.359843   0.089983   0.000071  -0.000032   0.358067
     8  H   -0.000861  -0.001606  -0.000173   0.000001  -0.000003  -0.026645
     9  C    0.000297   0.265630   0.039096   0.000019   0.000021   0.093881
    10  H    0.000000  -0.019791  -0.002099  -0.000010  -0.000003  -0.002169
    11  H   -0.000047  -0.028901   0.001651   0.000001   0.000000   0.003268
    12  C    0.004746  -0.006967   0.001524   0.066880  -0.001931  -0.971116
    13  C   -0.002742   0.003323  -0.000520  -0.023850   0.005433   0.152416
    14  C    0.001099  -0.000435   0.000180  -0.007825   0.010737  -0.687445
    15  C   -0.000481   0.001023  -0.000282  -0.372289   0.085444  -0.014426
    16  H   -0.000044   0.000610  -0.000069  -0.002903   0.000211  -0.004557
    17  C   -0.000719   0.000058  -0.000020   0.088777  -0.121075  -0.027126
    18  H   -0.000028  -0.000021   0.000014  -0.002992   0.001454  -0.053435
    19  C    0.000009   0.000008  -0.000029   0.246562   0.027315  -0.083559
    20  H    0.000002   0.000002   0.000012  -0.029309   0.001371   0.000412
    21  H   -0.000041   0.000001   0.000000  -0.020933  -0.001936   0.009497
    22  C    0.082370   0.004475  -0.001249   0.006651  -0.002041  -1.263260
    23  C   -0.026462   0.001482  -0.000054   0.000422  -0.000619  -2.535500
    24  C   -0.000129  -0.000557  -0.000097   0.000262   0.000114  -0.771778
    25  C   -0.084379   0.000131  -0.000003  -0.000003  -0.000112  -0.359575
    26  C   -0.123543   0.000104  -0.000077   0.000415   0.000070   1.096400
    27  H   -0.000953  -0.000035  -0.000007   0.000558  -0.000175  -0.018600
    28  C    0.495687  -0.000046   0.000018   0.000042  -0.000014  -1.658535
    29  H   -0.014341  -0.000003  -0.000003  -0.000001   0.000000  -0.061004
    30  H   -0.014988   0.000003   0.000000  -0.000012   0.000005   0.033703
    31  H    0.578019   0.000000   0.000000   0.000001   0.000000  -0.035889
    32  O    0.000000   8.289281   0.223431   0.000000   0.000000   0.000455
    33  H    0.000000   0.223431   0.362291   0.000000   0.000000   0.000015
    34  O    0.000001   0.000000   0.000000   8.291211   0.224839   0.000286
    35  H    0.000000   0.000000   0.000000   0.224839   0.359406  -0.000123
    36  C   -0.035889   0.000455   0.000015   0.000286  -0.000123  11.617070
    37  O    0.000469   0.000112  -0.000037  -0.000007   0.000002   0.696518
    38  O    0.001393  -0.000043   0.000017   0.000000   0.000001  -0.155377
    39  H   -0.000187   0.000021  -0.000005   0.000000  -0.000001   0.065965
              37         38         39
     1  C   -0.000358  -0.007866  -0.012164
     2  C    0.054658  -0.011835   0.001977
     3  C   -0.019214  -0.007530  -0.011322
     4  C    0.024598   0.025162   0.010283
     5  C   -0.012767   0.005773   0.001948
     6  H   -0.002974  -0.000509  -0.000366
     7  C   -0.005700   0.032936  -0.000345
     8  H    0.000702  -0.004027   0.000244
     9  C    0.000572   0.005241   0.001115
    10  H   -0.000617   0.000001  -0.000025
    11  H   -0.000776   0.000363  -0.000193
    12  C   -0.040432   0.003441  -0.007363
    13  C    0.007147   0.003927   0.000694
    14  C   -0.019354   0.006472  -0.002842
    15  C    0.003940   0.000585   0.000059
    16  H    0.001779   0.000239  -0.000010
    17  C    0.020675   0.003260  -0.000149
    18  H   -0.003268   0.001682  -0.000139
    19  C    0.000960   0.000156  -0.000296
    20  H    0.000036   0.000004   0.000003
    21  H   -0.000246  -0.000030   0.000033
    22  C    0.009086   0.041575   0.006890
    23  C   -0.165056   0.120916   0.002582
    24  C   -0.126363  -0.034192  -0.002466
    25  C   -0.081201  -0.052680  -0.021331
    26  C   -0.003295  -0.002025   0.004339
    27  H   -0.000480  -0.000368   0.000072
    28  C    0.036207   0.094178  -0.013816
    29  H   -0.001512  -0.008586   0.000720
    30  H   -0.000215   0.000192   0.000063
    31  H    0.000469   0.001393  -0.000187
    32  O    0.000112  -0.000043   0.000021
    33  H   -0.000037   0.000017  -0.000005
    34  O   -0.000007   0.000000   0.000000
    35  H    0.000002   0.000001  -0.000001
    36  C    0.696518  -0.155377   0.065965
    37  O    8.156840  -0.151305   0.010406
    38  O   -0.151305   8.275084   0.202123
    39  H    0.010406   0.202123   0.345608
 Mulliken charges:
               1
     1  C   -0.117902
     2  C    0.614995
     3  C   -0.540213
     4  C    0.052952
     5  C    0.048367
     6  H    0.202578
     7  C   -0.142330
     8  H    0.183049
     9  C   -0.216435
    10  H    0.159697
    11  H    0.191310
    12  C    0.366114
    13  C   -0.095712
    14  C   -0.237545
    15  C   -0.121598
    16  H    0.201953
    17  C    0.024390
    18  H    0.182667
    19  C   -0.163597
    20  H    0.179505
    21  H    0.158960
    22  C    0.101245
    23  C   -0.198232
    24  C   -0.219942
    25  C    0.324535
    26  C   -0.211870
    27  H    0.186212
    28  C   -0.378856
    29  H    0.198762
    30  H    0.162475
    31  H    0.147959
    32  O   -0.484491
    33  H    0.413384
    34  O   -0.479338
    35  H    0.415190
    36  C    0.451765
    37  O   -0.389533
    38  O   -0.388348
    39  H    0.417875
 Sum of Mulliken charges =   1.00000
 Mulliken charges with hydrogens summed into heavy atoms:
               1
     1  C   -0.117902
     2  C    0.614995
     3  C   -0.337635
     4  C    0.236001
     5  C    0.208064
     7  C    0.048980
     9  C   -0.216435
    12  C    0.366114
    13  C    0.106241
    14  C   -0.054878
    15  C    0.057907
    17  C    0.183350
    19  C   -0.163597
    22  C    0.101245
    23  C   -0.198232
    24  C   -0.033731
    25  C    0.523297
    26  C   -0.049394
    28  C   -0.230897
    32  O   -0.071107
    34  O   -0.064148
    36  C    0.451765
    37  O   -0.389533
    38  O    0.029527
 Electronic spatial extent (au):  <R**2>=           7858.8652
 Charge=              1.0000 electrons
 Dipole moment (field-independent basis, Debye):
    X=             -2.7133    Y=             -0.6323    Z=             -0.7505  Tot=              2.8853
 Quadrupole moment (field-independent basis, Debye-Ang):
   XX=            -84.5445   YY=            -84.8631   ZZ=           -127.3832
   XY=            -11.0968   XZ=              0.2361   YZ=             -6.4167
 Traceless Quadrupole moment (field-independent basis, Debye-Ang):
   XX=             14.3858   YY=             14.0672   ZZ=            -28.4529
   XY=            -11.0968   XZ=              0.2361   YZ=             -6.4167
 Octapole moment (field-independent basis, Debye-Ang**2):
  XXX=           -177.8472  YYY=            -62.3427  ZZZ=             19.6814  XYY=             86.1254
  XXY=              1.0611  XXZ=             75.3347  XZZ=             18.3164  YZZ=             26.8030
  YYZ=              1.8277  XYZ=             -9.9867
 Hexadecapole moment (field-independent basis, Debye-Ang**3):
 XXXX=          -3996.4614 YYYY=          -2937.7091 ZZZZ=           -942.8694 XXXY=           -235.2137
 XXXZ=           -201.6842 YYYX=           -268.7246 YYYZ=           -189.3531 ZZZX=            112.4698
 ZZZY=             24.5779 XXYY=          -1362.6069 XXZZ=           -915.2513 YYZZ=           -755.8134
 XXYZ=             21.0759 YYXZ=            108.8489 ZZXY=             29.1667
 N-N= 1.938386973136D+03 E-N=-6.348911151536D+03  KE= 1.061862085210D+03
 Leave Link  601 at Thu Jan  7 11:01:52 2021, MaxMem=   786432000 cpu:         8.3
 (Enter /opt/QChem/g09/l9999.exe)
 1\1\GINC-NB-09\SP\RB3LYP TD-FC\6-31++G(d,p)\C20H15O4(1+)\STUDENT\07-Ja
 n-2021\0\\#p b3lyp/6-31++g** geom=AllCheckpoint scrf(cpcm,solvent=wate
 r) scf=tight td=(singlet, nstates=10)\\Phenolphthalein in water pH0 st
 ructure\\1,1\C,0,-0.4335433826,0.7342282849,0.0306488622\C,0,0.2977150
 633,1.9343667801,0.3225491521\C,0,-0.217269755,3.2220356323,0.00060377
 5\C,0,1.5911421243,1.869083225,0.9172226997\C,0,0.502053147,4.36983299
 76,0.2689102879\H,0,-1.158866452,3.3065782211,-0.528416454\C,0,2.30360
 31021,3.0128199157,1.213471245\H,0,2.0071624781,0.9060580096,1.1896403
 376\C,0,1.7635847004,4.2729472448,0.8893864244\H,0,0.1098602364,5.3415
 379035,-0.0149552732\H,0,3.272865389,2.9605197318,1.6966779911\C,0,-1.
 8637150056,0.6823018895,-0.000297589\C,0,-2.6739833315,1.5939253139,0.
 7408671618\C,0,-2.527856596,-0.3192705362,-0.7671293246\C,0,-4.0501909
 962,1.5259785879,0.697194289\H,0,-2.2053691943,2.3122191275,1.40256792
 37\C,0,-3.904645585,-0.3753734786,-0.8372722922\H,0,-1.9421799062,-1.0
 233843947,-1.3466243126\C,0,-4.6761772858,0.5519992048,-0.1070548592\H
 ,0,-4.6639130702,2.1982985487,1.2862625558\H,0,-4.3935301266,-1.124412
 3533,-1.4522934411\C,0,0.3161955775,-0.5326051892,-0.1555899849\C,0,1.
 3387563802,-0.7003743814,-1.1246387289\C,0,0.0502232522,-1.5853476162,
 0.7359224629\C,0,2.0831693909,-1.8849665993,-1.1499386926\C,0,0.803647
 4031,-2.7610255369,0.7033007586\H,0,-0.723211987,-1.4618252185,1.48634
 24245\C,0,1.8236440438,-2.9097503514,-0.2360969746\H,0,2.8481425763,-2
 .0134734577,-1.9064970026\H,0,0.5901762717,-3.5539801864,1.4125580819\
 H,0,2.407668161,-3.8234524165,-0.2714956588\O,0,2.5090108462,5.3530922
 19,1.1859099965\H,0,2.0576081726,6.1741828369,0.9344762429\O,0,-6.0196
 978788,0.5479667487,-0.1245026955\H,0,-6.3665621032,-0.156949365,-0.69
 40406621\C,0,1.5269807493,0.309185176,-2.2069111897\O,0,0.664147599,1.
 0866627219,-2.5799616343\O,0,2.7512812784,0.2594533627,-2.7658982484\H
 ,0,2.7791322531,0.9039685174,-3.4950750643\\Version=AS64L-G09RevD.01\S
 tate=1-A\HF=-1071.9767386\RMSD=6.962e-09\PG=C01 [X(C20H15O4)]\\@


 A CHEMICAL PHYSICIST MAKES PRECISE MEASUREMENTS ON IMPURE COMPOUNDS.
 A THEORETICAL PHYSICAL CHEMIST MAKES IMPRECISE
     MEASUREMENTS ON PURE COMPOUNDS.
 AN EXPERIMENTAL PHYSICAL CHEMIST MAKES IMPRECISE
     MEASUREMENTS ON IMPURE COMPOUNDS.
 Job cpu time:       0 days  7 hours 10 minutes 16.0 seconds.
 File lengths (MBytes):  RWF=    866 Int=      0 D2E=      0 Chk=    114 Scr=      1
 Normal termination of Gaussian 09 at Thu Jan  7 11:02:01 2021.
