 Entering Gaussian System, Link 0=/opt/QChem/g09/g09.exe
 Input=14_ph.com
 Output=14_ph.log
 Initial command:
 /opt/QChem/g09/l1.exe "/store/users/student/gaussian.a8C2DX/Gau-3651.inp" -scrdir="/store/users/student/gaussian.a8C2DX/"
 Entering Link 1 = /opt/QChem/g09/l1.exe PID=      3652.
  
 Copyright (c) 1988,1990,1992,1993,1995,1998,2003,2009,2013,
            Gaussian, Inc.  All Rights Reserved.
  
 This is part of the Gaussian(R) 09 program.  It is based on
 the Gaussian(R) 03 system (copyright 2003, Gaussian, Inc.),
 the Gaussian(R) 98 system (copyright 1998, Gaussian, Inc.),
 the Gaussian(R) 94 system (copyright 1995, Gaussian, Inc.),
 the Gaussian 92(TM) system (copyright 1992, Gaussian, Inc.),
 the Gaussian 90(TM) system (copyright 1990, Gaussian, Inc.),
 the Gaussian 88(TM) system (copyright 1988, Gaussian, Inc.),
 the Gaussian 86(TM) system (copyright 1986, Carnegie Mellon
 University), and the Gaussian 82(TM) system (copyright 1983,
 Carnegie Mellon University). Gaussian is a federally registered
 trademark of Gaussian, Inc.
  
 This software contains proprietary and confidential information,
 including trade secrets, belonging to Gaussian, Inc.
  
 This software is provided under written license and may be
 used, copied, transmitted, or stored only in accord with that
 written license.
  
 The following legend is applicable only to US Government
 contracts under FAR:
  
                    RESTRICTED RIGHTS LEGEND
  
 Use, reproduction and disclosure by the US Government is
 subject to restrictions as set forth in subparagraphs (a)
 and (c) of the Commercial Computer Software - Restricted
 Rights clause in FAR 52.227-19.
  
 Gaussian, Inc.
 340 Quinnipiac St., Bldg. 40, Wallingford CT 06492
  
  
 ---------------------------------------------------------------
 Warning -- This program may not be used in any manner that
 competes with the business of Gaussian, Inc. or will provide
 assistance to any competitor of Gaussian, Inc.  The licensee
 of this program is prohibited from giving any competitor of
 Gaussian, Inc. access to this program.  By using this program,
 the user acknowledges that Gaussian, Inc. is engaged in the
 business of creating and licensing software in the field of
 computational chemistry and represents and warrants to the
 licensee that it is not a competitor of Gaussian, Inc. and that
 it will not use this program in any manner prohibited above.
 ---------------------------------------------------------------
  

 Cite this work as:
 Gaussian 09, Revision D.01,
 M. J. Frisch, G. W. Trucks, H. B. Schlegel, G. E. Scuseria, 
 M. A. Robb, J. R. Cheeseman, G. Scalmani, V. Barone, B. Mennucci, 
 G. A. Petersson, H. Nakatsuji, M. Caricato, X. Li, H. P. Hratchian, 
 A. F. Izmaylov, J. Bloino, G. Zheng, J. L. Sonnenberg, M. Hada, 
 M. Ehara, K. Toyota, R. Fukuda, J. Hasegawa, M. Ishida, T. Nakajima, 
 Y. Honda, O. Kitao, H. Nakai, T. Vreven, J. A. Montgomery, Jr., 
 J. E. Peralta, F. Ogliaro, M. Bearpark, J. J. Heyd, E. Brothers, 
 K. N. Kudin, V. N. Staroverov, T. Keith, R. Kobayashi, J. Normand, 
 K. Raghavachari, A. Rendell, J. C. Burant, S. S. Iyengar, J. Tomasi, 
 M. Cossi, N. Rega, J. M. Millam, M. Klene, J. E. Knox, J. B. Cross, 
 V. Bakken, C. Adamo, J. Jaramillo, R. Gomperts, R. E. Stratmann, 
 O. Yazyev, A. J. Austin, R. Cammi, C. Pomelli, J. W. Ochterski, 
 R. L. Martin, K. Morokuma, V. G. Zakrzewski, G. A. Voth, 
 P. Salvador, J. J. Dannenberg, S. Dapprich, A. D. Daniels, 
 O. Farkas, J. B. Foresman, J. V. Ortiz, J. Cioslowski, 
 and D. J. Fox, Gaussian, Inc., Wallingford CT, 2013.
 
 ******************************************
 Gaussian 09:  AS64L-G09RevD.01 24-Apr-2013
                 7-Jan-2021 
 ******************************************
 %chk=14_ph.chk
 %nproc=8
 Will use up to    8 processors via shared memory.
 %mem=6000MB
 ----------------------------------------------------------------------
 #p b3lyp/6-31++g** geom=AllCheckpoint scrf(cpcm,solvent=water) scf=tig
 ht td=(singlet,nstates=10)
 ----------------------------------------------------------------------
 1/29=7,38=1/1;
 2/12=2,40=1/2;
 3/5=1,6=6,7=1111,11=9,14=-4,16=1,25=1,30=1,70=2101,72=1,74=-5/1,2,8,3;
 4//1;
 5/5=2,32=2,38=5,53=1/2;
 8/6=1,10=2,108=10/1;
 9/41=10,42=1,48=1,70=2/14;
 6/7=2,8=2,9=2,10=2/1;
 99/5=1,9=1/99;
 Leave Link    1 at Thu Jan  7 12:28:27 2021, MaxMem=   786432000 cpu:        44.9
 (Enter /opt/QChem/g09/l101.exe)
 Structure from the checkpoint file:  "14_ph.chk"
 ---------------------------------------
 Phenolphthalein in water pH14 structure
 ---------------------------------------
 Charge = -3 Multiplicity = 1
 Redundant internal coordinates found in file.
 C,0,0.0540637413,-0.0686205123,0.0369147671
 C,0,0.0686571899,-0.0496274187,1.5780952429
 C,0,1.2089166836,-0.3198243662,2.3494243131
 C,0,-1.1019324518,0.2876195843,2.2858022747
 C,0,1.1929322972,-0.2667521828,3.7463719568
 H,0,2.1376314602,-0.5794169976,1.8482226571
 C,0,-1.1395769958,0.3409964102,3.676805219
 H,0,-2.0075662493,0.5130497322,1.7268791402
 C,0,0.0133424403,0.0638205433,4.4882217448
 H,0,2.1025247024,-0.4875180953,4.3034901276
 H,0,-2.0683535767,0.6008183255,4.1833727894
 C,0,1.3076298426,-0.7569732315,-0.5473372411
 C,0,1.4133971914,-2.1602567964,-0.4803336844
 C,0,2.3896537601,-0.080846357,-1.134179659
 C,0,2.5222195878,-2.8493634585,-0.9655842495
 H,0,0.5964537097,-2.7241986391,-0.0368571195
 C,0,3.5127067351,-0.754037088,-1.6240844583
 H,0,2.3660917056,1.0021935005,-1.2170740159
 C,0,3.6412200715,-2.1790333605,-1.5657843523
 H,0,2.5567481971,-3.9359495146,-0.8948315842
 H,0,4.3250114423,-0.185250589,-2.0748315342
 C,0,-0.0794329275,1.3874825025,-0.5150976899
 C,0,-0.833090412,1.785167266,-1.6523882829
 C,0,0.6227968828,2.3909446544,0.1806257271
 C,0,-0.8451551164,3.1473806071,-2.0177646363
 C,0,0.6252308376,3.728433601,-0.2126562508
 H,0,1.1832596413,2.1070080671,1.0647579552
 C,0,-0.1192542843,4.115316905,-1.3286858464
 H,0,-1.4474099492,3.4317251103,-2.8738945075
 H,0,1.1955518364,4.4585490121,0.3554015321
 H,0,-0.1416678422,5.1522045872,-1.6527081878
 O,0,-1.1118768438,-0.8443545006,-0.3054823219
 H,0,-1.1347262018,-0.8593767337,-1.2922857283
 O,0,-0.0160185551,0.1113506494,5.7866891418
 O,0,4.6806368635,-2.8154876325,-2.0175800728
 C,0,-1.6509633348,0.8828618753,-2.591980961
 O,0,-1.1938743928,-0.2758815914,-2.8677361107
 O,0,-2.7079996795,1.3723972859,-3.0694333414
 Recover connectivity data from disk.
 NAtoms=     38 NQM=       38 NQMF=       0 NMMI=      0 NMMIF=      0
                NMic=       0 NMicF=      0.
                    Isotopes and Nuclear Properties:
 (Nuclear quadrupole moments (NQMom) in fm**2, nuclear magnetic moments (NMagM)
  in nuclear magnetons)

  Atom         1           2           3           4           5           6           7           8           9          10
 IAtWgt=          12          12          12          12          12           1          12           1          12           1
 AtmWgt=  12.0000000  12.0000000  12.0000000  12.0000000  12.0000000   1.0078250  12.0000000   1.0078250  12.0000000   1.0078250
 NucSpn=           0           0           0           0           0           1           0           1           0           1
 AtZEff=  -3.6000000  -3.6000000  -3.6000000  -3.6000000  -3.6000000  -1.0000000  -3.6000000  -1.0000000  -3.6000000  -1.0000000
 NQMom=    0.0000000   0.0000000   0.0000000   0.0000000   0.0000000   0.0000000   0.0000000   0.0000000   0.0000000   0.0000000
 NMagM=    0.0000000   0.0000000   0.0000000   0.0000000   0.0000000   2.7928460   0.0000000   2.7928460   0.0000000   2.7928460
 AtZNuc=   6.0000000   6.0000000   6.0000000   6.0000000   6.0000000   1.0000000   6.0000000   1.0000000   6.0000000   1.0000000

  Atom        11          12          13          14          15          16          17          18          19          20
 IAtWgt=           1          12          12          12          12           1          12           1          12           1
 AtmWgt=   1.0078250  12.0000000  12.0000000  12.0000000  12.0000000   1.0078250  12.0000000   1.0078250  12.0000000   1.0078250
 NucSpn=           1           0           0           0           0           1           0           1           0           1
 AtZEff=  -1.0000000  -3.6000000  -3.6000000  -3.6000000  -3.6000000  -1.0000000  -3.6000000  -1.0000000  -3.6000000  -1.0000000
 NQMom=    0.0000000   0.0000000   0.0000000   0.0000000   0.0000000   0.0000000   0.0000000   0.0000000   0.0000000   0.0000000
 NMagM=    2.7928460   0.0000000   0.0000000   0.0000000   0.0000000   2.7928460   0.0000000   2.7928460   0.0000000   2.7928460
 AtZNuc=   1.0000000   6.0000000   6.0000000   6.0000000   6.0000000   1.0000000   6.0000000   1.0000000   6.0000000   1.0000000

  Atom        21          22          23          24          25          26          27          28          29          30
 IAtWgt=           1          12          12          12          12          12           1          12           1           1
 AtmWgt=   1.0078250  12.0000000  12.0000000  12.0000000  12.0000000  12.0000000   1.0078250  12.0000000   1.0078250   1.0078250
 NucSpn=           1           0           0           0           0           0           1           0           1           1
 AtZEff=  -1.0000000  -3.6000000  -3.6000000  -3.6000000  -3.6000000  -3.6000000  -1.0000000  -3.6000000  -1.0000000  -1.0000000
 NQMom=    0.0000000   0.0000000   0.0000000   0.0000000   0.0000000   0.0000000   0.0000000   0.0000000   0.0000000   0.0000000
 NMagM=    2.7928460   0.0000000   0.0000000   0.0000000   0.0000000   0.0000000   2.7928460   0.0000000   2.7928460   2.7928460
 AtZNuc=   1.0000000   6.0000000   6.0000000   6.0000000   6.0000000   6.0000000   1.0000000   6.0000000   1.0000000   1.0000000

  Atom        31          32          33          34          35          36          37          38
 IAtWgt=           1          16           1          16          16          12          16          16
 AtmWgt=   1.0078250  15.9949146   1.0078250  15.9949146  15.9949146  12.0000000  15.9949146  15.9949146
 NucSpn=           1           0           1           0           0           0           0           0
 AtZEff=  -1.0000000  -5.6000000  -1.0000000  -5.6000000  -5.6000000  -3.6000000  -5.6000000  -5.6000000
 NQMom=    0.0000000   0.0000000   0.0000000   0.0000000   0.0000000   0.0000000   0.0000000   0.0000000
 NMagM=    2.7928460   0.0000000   2.7928460   0.0000000   0.0000000   0.0000000   0.0000000   0.0000000
 AtZNuc=   1.0000000   8.0000000   1.0000000   8.0000000   8.0000000   6.0000000   8.0000000   8.0000000
 Leave Link  101 at Thu Jan  7 12:28:28 2021, MaxMem=   786432000 cpu:         3.5
 (Enter /opt/QChem/g09/l202.exe)
                          Input orientation:                          
 ---------------------------------------------------------------------
 Center     Atomic      Atomic             Coordinates (Angstroms)
 Number     Number       Type             X           Y           Z
 ---------------------------------------------------------------------
      1          6           0        0.054064   -0.068621    0.036915
      2          6           0        0.068657   -0.049627    1.578095
      3          6           0        1.208917   -0.319824    2.349424
      4          6           0       -1.101932    0.287620    2.285802
      5          6           0        1.192932   -0.266752    3.746372
      6          1           0        2.137631   -0.579417    1.848223
      7          6           0       -1.139577    0.340996    3.676805
      8          1           0       -2.007566    0.513050    1.726879
      9          6           0        0.013342    0.063821    4.488222
     10          1           0        2.102525   -0.487518    4.303490
     11          1           0       -2.068354    0.600818    4.183373
     12          6           0        1.307630   -0.756973   -0.547337
     13          6           0        1.413397   -2.160257   -0.480334
     14          6           0        2.389654   -0.080846   -1.134180
     15          6           0        2.522220   -2.849363   -0.965584
     16          1           0        0.596454   -2.724199   -0.036857
     17          6           0        3.512707   -0.754037   -1.624084
     18          1           0        2.366092    1.002194   -1.217074
     19          6           0        3.641220   -2.179033   -1.565784
     20          1           0        2.556748   -3.935950   -0.894832
     21          1           0        4.325011   -0.185251   -2.074832
     22          6           0       -0.079433    1.387483   -0.515098
     23          6           0       -0.833090    1.785167   -1.652388
     24          6           0        0.622797    2.390945    0.180626
     25          6           0       -0.845155    3.147381   -2.017765
     26          6           0        0.625231    3.728434   -0.212656
     27          1           0        1.183260    2.107008    1.064758
     28          6           0       -0.119254    4.115317   -1.328686
     29          1           0       -1.447410    3.431725   -2.873895
     30          1           0        1.195552    4.458549    0.355402
     31          1           0       -0.141668    5.152205   -1.652708
     32          8           0       -1.111877   -0.844355   -0.305482
     33          1           0       -1.134726   -0.859377   -1.292286
     34          8           0       -0.016019    0.111351    5.786689
     35          8           0        4.680637   -2.815488   -2.017580
     36          6           0       -1.650963    0.882862   -2.591981
     37          8           0       -1.193874   -0.275882   -2.867736
     38          8           0       -2.708000    1.372397   -3.069433
 ---------------------------------------------------------------------
                    Distance matrix (angstroms):
                    1          2          3          4          5
     1  C    0.000000
     2  C    1.541367   0.000000
     3  C    2.597015   1.402906   0.000000
     4  C    2.553572   1.408852   2.390201   0.000000
     5  C    3.885402   2.452053   1.398047   2.776148   0.000000
     6  H    2.807669   2.152743   1.086785   3.382012   2.143172
     7  C    3.852449   2.452957   2.777417   1.392536   2.411389
     8  H    2.728486   2.156257   3.380385   1.087836   3.863888
     9  C    4.453463   2.912862   2.480128   2.478825   1.432149
    10  H    4.751351   3.428723   2.155233   3.865288   1.089255
    11  H    4.705945   3.431817   3.866711   2.152403   3.402886
    12  C    1.544865   2.559854   2.931223   3.863139   4.323125
    13  C    2.547602   3.240403   3.381795   4.468835   4.636702
    14  C    2.612775   3.569935   3.686021   4.901349   5.028567
    15  C    3.850887   4.508747   4.371798   5.791947   5.535288
    16  H    2.711406   3.168591   3.442451   4.165370   4.550566
    17  C    3.897554   4.755168   4.613541   6.137358   5.870315
    18  H    2.839825   3.767958   3.975764   4.980758   5.255694
    19  C    4.459841   5.213593   4.970072   6.589127   6.153855
    20  H    4.699767   5.235405   5.041647   6.429690   6.071554
    21  H    4.765928   5.610599   5.413150   6.977855   6.610822
    22  C    1.562938   2.543358   3.574944   3.178088   4.745053
    23  C    2.660323   3.823041   4.961380   4.221880   6.120601
    24  C    2.528551   2.866424   3.520723   3.439540   4.483632
    25  C    3.920837   4.897563   5.942479   5.173476   7.002526
    26  C    3.847874   4.217856   4.826317   4.589618   5.653114
    27  H    2.657989   2.481316   2.746005   3.165948   3.581324
    28  C    4.404570   5.082465   5.912953   5.355506   6.832318
    29  H    4.793710   5.851366   6.957963   6.052043   8.029824
    30  H    4.679711   4.805052   5.177756   5.138242   5.816112
    31  H    5.490915   6.127102   6.912615   6.332311   7.765070
    32  O    1.441671   2.360745   3.565073   2.827759   4.697158
    33  H    1.950715   3.216040   4.364153   3.757578   5.581870
    34  O    5.753017   4.212523   3.674394   3.669671   2.401545
    35  O    5.759462   6.469097   6.111620   7.847706   7.203005
    36  C    3.274680   4.606101   5.834625   4.944544   7.041596
    37  O    3.168170   4.627158   5.744049   5.185069   7.031597
    38  O    4.399423   5.597455   6.897091   5.695151   8.022424
                    6          7          8          9         10
     6  H    0.000000
     7  C    3.864061   0.000000
     8  H    4.288458   2.141313   0.000000
     9  C    3.449051   1.436818   3.451216   0.000000
    10  H    2.457238   3.404467   4.953071   2.168590   0.000000
    11  H    4.953402   1.089378   2.458813   2.171349   4.312207
    12  C    2.541483   5.003772   4.216105   5.263624   4.922905
    13  C    2.906156   5.482312   4.870457   5.620784   5.114482
    14  C    3.034273   5.981555   5.279575   6.105668   5.460410
    15  C    3.635667   6.718551   6.250931   6.672713   5.789439
    16  H    3.244818   5.118643   4.513476   5.346906   5.109756
    17  C    3.738749   7.137386   6.580872   7.090467   6.098835
    18  H    3.456838   6.056150   5.294809   6.242305   5.724101
    19  C    4.058940   7.529364   7.070907   7.405598   6.298983
    20  H    4.355033   7.270141   6.892019   7.172471   6.254642
    21  H    4.508919   7.951100   7.419041   7.856602   6.761198
    22  C    3.790693   4.448718   3.083633   5.176282   5.612072
    23  C    5.164371   5.529907   3.796989   6.433240   7.018221
    24  C    3.728090   4.419448   3.582764   4.933794   5.241484
    25  C    6.142629   6.355360   4.723691   7.250739   7.865085
    26  C    5.009207   5.451347   4.586078   5.991832   6.352340
    27  H    2.956607   3.916268   3.627737   4.154928   4.250412
    28  C    6.101377   6.351495   5.087094   7.090037   7.605511
    29  H    7.158224   7.249761   5.477185   8.226624   8.915007
    30  H    5.338270   5.782628   5.263828   6.147476   6.393245
    31  H    7.092475   7.248949   6.035308   7.976635   8.504068
    32  O    3.907421   4.155050   2.602940   5.007045   5.630483
    33  H    4.544172   5.112023   3.429397   5.965285   6.475398
    34  O    4.541683   2.401402   4.539789   1.299669   2.654571
    35  O    5.139194   8.732944   8.356566   8.508790   7.212630
    36  C    6.017235   6.312909   4.349308   7.319154   7.969576
    37  O    5.781983   6.573774   4.732335   7.462097   7.895412
    38  O    7.174473   7.002533   4.922773   8.138564   8.997801
                   11         12         13         14         15
    11  H    0.000000
    12  C    5.968289   0.000000
    13  C    6.441761   1.408858   0.000000
    14  C    6.972436   1.404389   2.388418   0.000000
    15  C    7.712903   2.455251   1.392775   2.776812   0.000000
    16  H    5.997272   2.153216   1.087244   3.377424   2.141676
    17  C    8.167645   2.453927   2.773575   1.398013   2.409373
    18  H    6.999302   2.159527   3.384007   1.086463   3.862915
    19  C    8.566190   2.916356   2.478256   2.480945   1.435878
    20  H    8.231767   3.433211   2.152242   3.866139   1.089434
    21  H    8.980988   3.429970   3.862715   2.154376   3.402644
    22  C    5.162390   2.554148   3.849182   2.938646   4.992234
    23  C    6.081502   3.502328   4.689007   3.759871   5.762697
    24  C    5.144786   3.302774   4.666407   3.310626   5.690556
    25  C    6.814345   4.694744   5.969570   4.654692   6.957531
    26  C    6.030128   4.549347   5.947229   4.298024   6.887153
    27  H    4.750511   3.288876   4.544207   3.328276   5.520935
    28  C    6.821545   5.136703   6.515485   4.892876   7.457614
    29  H    7.629196   5.527052   6.721876   5.485237   7.671485
    30  H    6.339442   5.294258   6.674916   4.924514   7.543914
    31  H    7.647684   6.183906   7.567350   5.836205   8.461296
    32  O    4.811776   2.433134   2.852925   3.678369   4.202672
    33  H    5.743402   2.555492   2.973968   3.612805   4.176127
    34  O    2.649959   6.528853   6.817551   7.329572   7.797543
    35  O    9.781198   4.216192   3.669783   3.675223   2.401376
    36  C    6.794055   3.952582   4.807279   4.402329   5.830105
    37  O    7.159012   3.445754   4.006049   3.985590   4.904115
    38  O    7.321726   5.198122   6.014066   5.642977   7.043056
                   16         17         18         19         20
    16  H    0.000000
    17  C    3.860746   0.000000
    18  H    4.290749   2.136523   0.000000
    19  C    3.450424   1.431967   3.444961   0.000000
    20  H    2.459109   3.401505   4.952317   2.170947   0.000000
    21  H    4.949923   1.089280   2.446045   2.168379   4.311252
    22  C    4.194217   4.326595   2.573288   5.259965   5.952527
    23  C    4.998792   5.033320   3.322245   5.978448   6.692987
    24  C    5.119832   4.636752   2.630831   5.748524   6.702713
    25  C    6.362207   5.862338   3.943988   6.978720   7.937726
    26  C    6.455091   5.515631   3.387010   6.769440   7.933403
    27  H    4.989835   4.565279   2.797582   5.597452   6.499523
    28  C    6.997145   6.081859   3.985090   7.335954   8.495417
    29  H    7.079658   6.609492   4.815649   7.686737   8.615834
    30  H    7.218355   6.038098   3.973567   7.330058   8.595554
    31  H    8.074251   6.945428   4.868391   8.250142   9.510540
    32  O    2.554284   4.809744   4.041906   5.095258   4.833643
    33  H    2.837366   4.660453   3.965706   4.962455   4.821852
    34  O    6.506086   8.253506   7.451225   8.525264   8.224505
    35  O    4.540060   2.401766   4.535705   1.299839   2.650830
    36  C    4.958874   5.502704   4.247510   6.199636   6.618617
    37  O    4.148904   4.891545   4.126926   5.356790   5.599609
    38  O    6.074375   6.731118   5.414304   7.428742   7.786206
                   21         22         23         24         25
    21  H    0.000000
    22  C    4.930050   0.000000
    23  C    5.537781   1.421120   0.000000
    24  C    5.042843   1.408579   2.417957   0.000000
    25  C    6.151448   2.437536   1.410415   2.749545   0.000000
    26  C    5.698508   2.463346   2.824148   1.394114   2.399599
    27  H    4.998207   2.146638   3.398843   1.084633   3.833900
    28  C    6.229214   2.846857   2.458443   2.408759   1.392359
    29  H    6.858707   3.407963   2.140238   3.833937   1.084676
    30  H    6.104459   3.437267   3.910701   2.152576   3.393459
    31  H    6.972649   3.933340   3.437296   3.401481   2.155801
    32  O    5.755412   2.467990   2.967535   3.703047   4.351666
    33  H    5.556578   2.601162   2.685939   3.977807   4.082190
    34  O    8.985323   6.430012   7.668712   6.085440   8.415132
    35  O    2.654787   6.525387   7.190311   6.957378   8.129586
    36  C    6.092666   2.652884   1.538150   3.889942   2.471254
    37  O    5.576290   3.089283   2.419743   4.439005   3.544401
    38  O    7.271777   3.665272   2.386143   4.763877   2.779706
                   26         27         28         29         30
    26  C    0.000000
    27  H    2.138271   0.000000
    28  C    1.396230   3.385029   0.000000
    29  H    3.386158   4.918158   2.149178   0.000000
    30  H    1.086749   2.456233   2.163949   4.297437   0.000000
    31  H    2.165412   4.291069   1.086567   2.481191   2.510342
    32  O    4.892499   3.981928   5.160483   4.999418   5.820806
    33  H    5.031009   4.441638   5.077409   4.583973   6.035346
    34  O    7.034674   5.264746   8.165229   9.385067   7.061510
    35  O    7.907400   6.779633   8.458699   8.792832   8.407643
    36  C    4.351956   4.785718   3.793522   2.572472   5.438313
    37  O    5.137425   5.176238   4.775574   3.716270   6.205869
    38  O    4.982219   5.724779   4.153963   2.422427   6.040823
                   31         32         33         34         35
    31  H    0.000000
    32  O    6.222141   0.000000
    33  H    6.103702   0.987182   0.000000
    34  O    8.987248   6.263292   7.232268   0.000000
    35  O    9.320508   6.353728   6.178258   9.567213   0.000000
    36  C    4.624661   2.915813   2.234078   8.571487   7.355059
    37  O    5.661056   2.625839   1.681074   8.742790   6.456179
    38  O    4.783316   3.886003   3.257953   9.341729   8.557846
                   36         37         38
    36  C    0.000000
    37  O    1.275797   0.000000
    38  O    1.258941   2.247238   0.000000
 Stoichiometry    C20H13O5(3-)
 Framework group  C1[X(C20H13O5)]
 Deg. of freedom   108
 Full point group                 C1      NOp   1
 RotChk:  IX=0 Diff= 3.11D-15
 Largest Abelian subgroup         C1      NOp   1
 Largest concise Abelian subgroup C1      NOp   1
                         Standard orientation:                         
 ---------------------------------------------------------------------
 Center     Atomic      Atomic             Coordinates (Angstroms)
 Number     Number       Type             X           Y           Z
 ---------------------------------------------------------------------
      1          6           0        0.047958   -0.081698   -0.517860
      2          6           0        1.581337   -0.033532   -0.368736
      3          6           0        2.265470    0.980775    0.317771
      4          6           0        2.370767   -1.067485   -0.909666
      5          6           0        3.656551    0.978390    0.457135
      6          1           0        1.698936    1.797397    0.757396
      7          6           0        3.757685   -1.085388   -0.786000
      8          1           0        1.880533   -1.879041   -1.442991
      9          6           0        4.480945   -0.055916   -0.092079
     10          1           0        4.144510    1.789305    0.996384
     11          1           0        4.329562   -1.902038   -1.225072
     12          6           0       -0.613710    1.265661   -0.152586
     13          6           0       -0.509395    2.346515   -1.050224
     14          6           0       -1.308880    1.516252    1.041671
     15          6           0       -1.060603    3.596812   -0.780500
     16          1           0        0.017630    2.195609   -1.989144
     17          6           0       -1.866410    2.764917    1.332248
     18          1           0       -1.425191    0.721501    1.773276
     19          6           0       -1.771907    3.876887    0.434962
     20          1           0       -0.957165    4.401342   -1.507756
     21          1           0       -2.400458    2.908877    2.270650
     22          6           0       -0.538958   -1.235945    0.357366
     23          6           0       -1.623393   -2.084251    0.005288
     24          6           0        0.063688   -1.441616    1.613794
     25          6           0       -2.031220   -3.080353    0.916731
     26          6           0       -0.372306   -2.410839    2.516052
     27          1           0        0.907977   -0.817935    1.886974
     28          6           0       -1.435956   -3.244303    2.164707
     29          1           0       -2.844217   -3.732526    0.616351
     30          1           0        0.122941   -2.517012    3.477552
     31          1           0       -1.791033   -4.013276    2.845318
     32          8           0       -0.172372   -0.350576   -1.916994
     33          1           0       -1.152983   -0.388784   -2.024090
     34          8           0        5.775203   -0.066955    0.025876
     35          8           0       -2.285857    5.042210    0.694690
     36          6           0       -2.462851   -2.039809   -1.282827
     37          8           0       -2.736700   -0.900595   -1.787660
     38          8           0       -2.868265   -3.143318   -1.733204
 ---------------------------------------------------------------------
 Rotational constants (GHZ):      0.2294375      0.2053790      0.1373330
 Leave Link  202 at Thu Jan  7 12:28:31 2021, MaxMem=   786432000 cpu:         0.3
 (Enter /opt/QChem/g09/l301.exe)
 Standard basis: 6-31++G(d,p) (6D, 7F)
 Ernie: Thresh=  0.10000D-02 Tol=  0.10000D-05 Strict=F.
 There are   553 symmetry adapted cartesian basis functions of A   symmetry.
 There are   553 symmetry adapted basis functions of A   symmetry.
   553 basis functions,   904 primitive gaussians,   553 cartesian basis functions
    88 alpha electrons       88 beta electrons
       nuclear repulsion energy      2068.1902360112 Hartrees.
 IExCor=  402 DFT=T Ex+Corr=B3LYP ExCW=0 ScaHFX=  0.200000
 ScaDFX=  0.800000  0.720000  1.000000  0.810000 ScalE2=  1.000000  1.000000
 IRadAn=      0 IRanWt=     -1 IRanGd=            0 ICorTp=0 IEmpDi=  4
 NAtoms=   38 NActive=   38 NUniq=   38 SFac= 1.00D+00 NAtFMM=   60 NAOKFM=F Big=F
 Integral buffers will be    131072 words long.
 Regular integral format.
 Two-electron integral symmetry is turned on.
 ------------------------------------------------------------------------------
 Polarizable Continuum Model (PCM)
 =================================
 Model                : C-PCM.
 Atomic radii         : UFF (Universal Force Field).
 Polarization charges : Total charges.
 Charge compensation  : None.
 Solution method      : On-the-fly selection.
 Cavity type          : Scaled VdW (van der Waals Surface) (Alpha=1.100).
 Cavity algorithm     : GePol (No added spheres)
                        Default sphere list used, NSphG=   38.
                        Lebedev-Laikov grids with approx.  5.0 points / Ang**2.
                        Smoothing algorithm: Karplus/York (Gamma=1.0000).
                        Polarization charges: spherical gaussians, with
                                              point-specific exponents (IZeta= 3).
                        Self-potential: point-specific (ISelfS= 7).
                        Self-field    : sphere-specific E.n sum rule (ISelfD= 2).
 Solvent              : Water, Eps=  78.355300 Eps(inf)=   1.777849
 ------------------------------------------------------------------------------
 GePol: Number of generator spheres                  =      38
 GePol: Total number of spheres                      =      38
 GePol: Number of exposed spheres                    =      38 (100.00%)
 GePol: Number of points                             =    2955
 GePol: Average weight of points                     =       0.13
 GePol: Minimum weight of points                     =   0.17D-11
 GePol: Maximum weight of points                     =    0.20577
 GePol: Number of points with low weight             =     187
 GePol: Fraction of low-weight points (<1% of avg)   =       6.33%
 GePol: Cavity surface area                          =    384.984 Ang**2
 GePol: Cavity volume                                =    433.158 Ang**3
 Leave Link  301 at Thu Jan  7 12:28:32 2021, MaxMem=   786432000 cpu:         1.7
 (Enter /opt/QChem/g09/l302.exe)
 NPDir=0 NMtPBC=     1 NCelOv=     1 NCel=       1 NClECP=     1 NCelD=      1
         NCelK=      1 NCelE2=     1 NClLst=     1 CellRange=     0.0.
 One-electron integrals computed using PRISM.
 NBasis=   553 RedAO= T EigKep=  1.03D-06  NBF=   553
 NBsUse=   547 1.00D-06 EigRej=  8.19D-07 NBFU=   547
 Precomputing XC quadrature grid using
 IXCGrd= 4 IRadAn=           0 IRanWt=          -1 IRanGd=           0 AccXCQ= 0.00D+00.
 Generated NRdTot=       0 NPtTot=           0 NUsed=           0 NTot=          32
 NSgBfM=   549   549   549   549   549 MxSgAt=    38 MxSgA2=    38.
 Leave Link  302 at Thu Jan  7 12:28:34 2021, MaxMem=   786432000 cpu:        12.7
 (Enter /opt/QChem/g09/l308.exe)
 Leave Link  308 at Thu Jan  7 12:28:34 2021, MaxMem=   786432000 cpu:         1.4
 (Enter /opt/QChem/g09/l303.exe)
 DipDrv:  MaxL=1.
 Leave Link  303 at Thu Jan  7 12:28:35 2021, MaxMem=   786432000 cpu:         1.4
 (Enter /opt/QChem/g09/l401.exe)
 ExpMin= 3.60D-02 ExpMax= 5.48D+03 ExpMxC= 8.25D+02 IAcc=3 IRadAn=         5 AccDes= 0.00D+00
 Harris functional with IExCor=  402 and IRadAn=       5 diagonalized for initial guess.
 HarFok:  IExCor=  402 AccDes= 0.00D+00 IRadAn=         5 IDoV= 1 UseB2=F ITyADJ=14
 ICtDFT=  3500011 ScaDFX=  1.000000  1.000000  1.000000  1.000000
 FoFCou: FMM=F IPFlag=           0 FMFlag=      100000 FMFlg1=           0
         NFxFlg=           0 DoJE=T BraDBF=F KetDBF=T FulRan=T
         wScrn=  0.000000 ICntrl=     500 IOpCl=  0 I1Cent=   200000004 NGrid=           0
         NMat0=    1 NMatS0=      1 NMatT0=    0 NMatD0=    1 NMtDS0=    0 NMtDT0=    0
 Petite list used in FoFCou.
 Harris En= -1146.81656615846    
 JPrj=0 DoOrth=F DoCkMO=F.
 Leave Link  401 at Thu Jan  7 12:28:46 2021, MaxMem=   786432000 cpu:        86.3
 (Enter /opt/QChem/g09/l502.exe)
 Closed shell SCF:
 Using DIIS extrapolation, IDIIS=  1040.
 Integral symmetry usage will be decided dynamically.
 IVT=      944525 IEndB=      944525 NGot=   786432000 MDV=   785810478
 LenX=   785810478 LenY=   785504116
 Requested convergence on RMS density matrix=1.00D-08 within 128 cycles.
 Requested convergence on MAX density matrix=1.00D-06.
 Requested convergence on             energy=1.00D-06.
 No special actions if energy rises.
 Fock matrices will be formed incrementally for  20 cycles.

 Cycle   1  Pass 1  IDiag  1:
 FoFJK:  IHMeth= 1 ICntrl=       0 DoSepK=F KAlg= 0 I1Cent=   0 FoldK=F
 IRaf= 820000000 NMat=   1 IRICut=       1 DoRegI=T DoRafI=F ISym2E= 0.
 FoFCou: FMM=F IPFlag=           0 FMFlag=      100000 FMFlg1=           0
         NFxFlg=           0 DoJE=F BraDBF=F KetDBF=F FulRan=T
         wScrn=  0.000000 ICntrl=       0 IOpCl=  0 I1Cent=           0 NGrid=           0
         NMat0=    1 NMatS0=      1 NMatT0=    0 NMatD0=    1 NMtDS0=    0 NMtDT0=    0
 Symmetry not used in FoFCou.
 Inv3:  Mode=1 IEnd=    26196075.
 Iteration    1 A*A^-1 deviation from unit magnitude is 8.99D-15 for   2952.
 Iteration    1 A*A^-1 deviation from orthogonality  is 5.37D-15 for   2943   2893.
 Iteration    1 A^-1*A deviation from unit magnitude is 8.99D-15 for   2952.
 Iteration    1 A^-1*A deviation from orthogonality  is 2.97D-15 for   2940   2922.
 E= -1145.81522732826    
 DIIS: error= 1.66D-02 at cycle   1 NSaved=   1.
 NSaved= 1 IEnMin= 1 EnMin= -1145.81522732826     IErMin= 1 ErrMin= 1.66D-02
 ErrMax= 1.66D-02  0.00D+00 EMaxC= 1.00D-01 BMatC= 7.76D-01 BMatP= 7.76D-01
 IDIUse=3 WtCom= 8.34D-01 WtEn= 1.66D-01
 Coeff-Com:  0.100D+01
 Coeff-En:   0.100D+01
 Coeff:      0.100D+01
 Gap=     0.093 Goal=   None    Shift=    0.000
 GapD=    0.093 DampG=0.500 DampE=0.500 DampFc=0.2500 IDamp=-1.
 Damping current iteration by 2.50D-01
 RMSDP=4.16D-01 MaxDP=4.57D+01              OVMax= 3.62D-01

 Cycle   2  Pass 1  IDiag  1:
 RMSU=  6.50D-02    CP:  1.55D+00
 E= -1146.07079235658     Delta-E=       -0.255565028326 Rises=F Damp=T
 DIIS: error= 1.00D-02 at cycle   2 NSaved=   2.
 NSaved= 2 IEnMin= 2 EnMin= -1146.07079235658     IErMin= 2 ErrMin= 1.00D-02
 ErrMax= 1.00D-02  0.00D+00 EMaxC= 1.00D-01 BMatC= 1.55D-01 BMatP= 7.76D-01
 IDIUse=3 WtCom= 9.00D-01 WtEn= 1.00D-01
 Coeff-Com: -0.578D+00 0.158D+01
 Coeff-En:   0.000D+00 0.100D+01
 Coeff:     -0.520D+00 0.152D+01
 Gap=     0.164 Goal=   None    Shift=    0.000
 RMSDP=6.86D-02 MaxDP=7.28D+00 DE=-2.56D-01 OVMax= 2.60D-01

 Cycle   3  Pass 1  IDiag  1:
 RMSU=  3.10D-02    CP:  1.17D+00  6.20D-01
 E= -1146.47080004680     Delta-E=       -0.400007690217 Rises=F Damp=F
 DIIS: error= 7.55D-03 at cycle   3 NSaved=   3.
 NSaved= 3 IEnMin= 3 EnMin= -1146.47080004680     IErMin= 3 ErrMin= 7.55D-03
 ErrMax= 7.55D-03  0.00D+00 EMaxC= 1.00D-01 BMatC= 9.34D-02 BMatP= 1.55D-01
 IDIUse=3 WtCom= 9.24D-01 WtEn= 7.55D-02
 Coeff-Com: -0.405D+00 0.955D+00 0.450D+00
 Coeff-En:   0.000D+00 0.000D+00 0.100D+01
 Coeff:     -0.374D+00 0.883D+00 0.491D+00
 Gap=     0.169 Goal=   None    Shift=    0.000
 RMSDP=1.51D-02 MaxDP=1.39D+00 DE=-4.00D-01 OVMax= 1.27D-01

 Cycle   4  Pass 1  IDiag  1:
 RMSU=  1.27D-02    CP:  1.15D+00  6.60D-01  7.78D-01
 E= -1146.54554473406     Delta-E=       -0.074744687263 Rises=F Damp=F
 DIIS: error= 2.60D-03 at cycle   4 NSaved=   4.
 NSaved= 4 IEnMin= 4 EnMin= -1146.54554473406     IErMin= 4 ErrMin= 2.60D-03
 ErrMax= 2.60D-03  0.00D+00 EMaxC= 1.00D-01 BMatC= 1.34D-02 BMatP= 9.34D-02
 IDIUse=3 WtCom= 9.74D-01 WtEn= 2.60D-02
 Coeff-Com: -0.124D+00 0.248D+00 0.291D+00 0.585D+00
 Coeff-En:   0.000D+00 0.000D+00 0.143D+00 0.857D+00
 Coeff:     -0.120D+00 0.241D+00 0.287D+00 0.592D+00
 Gap=     0.140 Goal=   None    Shift=    0.000
 RMSDP=9.45D-03 MaxDP=1.23D+00 DE=-7.47D-02 OVMax= 4.43D-02

 Cycle   5  Pass 1  IDiag  1:
 RMSU=  4.35D-03    CP:  1.14D+00  5.96D-01  9.24D-01  5.55D-01
 E= -1146.55686248011     Delta-E=       -0.011317746050 Rises=F Damp=F
 DIIS: error= 9.12D-04 at cycle   5 NSaved=   5.
 NSaved= 5 IEnMin= 5 EnMin= -1146.55686248011     IErMin= 5 ErrMin= 9.12D-04
 ErrMax= 9.12D-04  0.00D+00 EMaxC= 1.00D-01 BMatC= 1.74D-03 BMatP= 1.34D-02
 IDIUse=3 WtCom= 9.91D-01 WtEn= 9.12D-03
 Coeff-Com: -0.414D-01 0.671D-01 0.132D+00 0.371D+00 0.472D+00
 Coeff-En:   0.000D+00 0.000D+00 0.000D+00 0.774D-01 0.923D+00
 Coeff:     -0.410D-01 0.665D-01 0.131D+00 0.368D+00 0.476D+00
 Gap=     0.141 Goal=   None    Shift=    0.000
 RMSDP=5.23D-03 MaxDP=5.76D-01 DE=-1.13D-02 OVMax= 1.13D-02

 Cycle   6  Pass 1  IDiag  1:
 RMSU=  2.07D-03    CP:  1.17D+00  6.29D-01  9.83D-01  5.98D-01  8.38D-01
 E= -1146.55844383675     Delta-E=       -0.001581356641 Rises=F Damp=F
 DIIS: error= 2.45D-04 at cycle   6 NSaved=   6.
 NSaved= 6 IEnMin= 6 EnMin= -1146.55844383675     IErMin= 6 ErrMin= 2.45D-04
 ErrMax= 2.45D-04  0.00D+00 EMaxC= 1.00D-01 BMatC= 9.93D-05 BMatP= 1.74D-03
 IDIUse=3 WtCom= 9.98D-01 WtEn= 2.45D-03
 Coeff-Com: -0.104D-01 0.118D-01 0.352D-01 0.126D+00 0.247D+00 0.590D+00
 Coeff-En:   0.000D+00 0.000D+00 0.000D+00 0.000D+00 0.000D+00 0.100D+01
 Coeff:     -0.104D-01 0.118D-01 0.351D-01 0.126D+00 0.247D+00 0.591D+00
 Gap=     0.141 Goal=   None    Shift=    0.000
 RMSDP=1.68D-03 MaxDP=2.08D-01 DE=-1.58D-03 OVMax= 2.07D-03

 Cycle   7  Pass 1  IDiag  1:
 RMSU=  5.48D-04    CP:  1.16D+00  6.17D-01  9.76D-01  6.03D-01  9.31D-01
                    CP:  6.89D-01
 E= -1146.55851903359     Delta-E=       -0.000075196837 Rises=F Damp=F
 DIIS: error= 8.54D-05 at cycle   7 NSaved=   7.
 NSaved= 7 IEnMin= 7 EnMin= -1146.55851903359     IErMin= 7 ErrMin= 8.54D-05
 ErrMax= 8.54D-05  0.00D+00 EMaxC= 1.00D-01 BMatC= 1.75D-05 BMatP= 9.93D-05
 IDIUse=1 WtCom= 1.00D+00 WtEn= 0.00D+00
 Coeff-Com: -0.376D-02 0.339D-02 0.103D-01 0.434D-01 0.107D+00 0.361D+00
 Coeff-Com:  0.478D+00
 Coeff:     -0.376D-02 0.339D-02 0.103D-01 0.434D-01 0.107D+00 0.361D+00
 Coeff:      0.478D+00
 Gap=     0.141 Goal=   None    Shift=    0.000
 RMSDP=4.18D-04 MaxDP=3.54D-02 DE=-7.52D-05 OVMax= 7.25D-04

 Cycle   8  Pass 1  IDiag  1:
 RMSU=  1.66D-04    CP:  1.16D+00  6.18D-01  9.84D-01  6.09D-01  9.33D-01
                    CP:  7.98D-01  8.10D-01
 E= -1146.55853469764     Delta-E=       -0.000015664049 Rises=F Damp=F
 DIIS: error= 2.29D-05 at cycle   8 NSaved=   8.
 NSaved= 8 IEnMin= 8 EnMin= -1146.55853469764     IErMin= 8 ErrMin= 2.29D-05
 ErrMax= 2.29D-05  0.00D+00 EMaxC= 1.00D-01 BMatC= 1.28D-06 BMatP= 1.75D-05
 IDIUse=1 WtCom= 1.00D+00 WtEn= 0.00D+00
 Coeff-Com: -0.791D-03 0.293D-03 0.132D-02 0.888D-02 0.317D-01 0.132D+00
 Coeff-Com:  0.262D+00 0.565D+00
 Coeff:     -0.791D-03 0.293D-03 0.132D-02 0.888D-02 0.317D-01 0.132D+00
 Coeff:      0.262D+00 0.565D+00
 Gap=     0.141 Goal=   None    Shift=    0.000
 RMSDP=9.93D-05 MaxDP=1.35D-02 DE=-1.57D-05 OVMax= 2.81D-04

 Cycle   9  Pass 1  IDiag  1:
 RMSU=  2.67D-05    CP:  1.16D+00  6.18D-01  9.86D-01  6.08D-01  9.45D-01
                    CP:  8.09D-01  8.46D-01  1.03D+00
 E= -1146.55853563007     Delta-E=       -0.000000932437 Rises=F Damp=F
 DIIS: error= 1.06D-05 at cycle   9 NSaved=   9.
 NSaved= 9 IEnMin= 9 EnMin= -1146.55853563007     IErMin= 9 ErrMin= 1.06D-05
 ErrMax= 1.06D-05  0.00D+00 EMaxC= 1.00D-01 BMatC= 2.28D-07 BMatP= 1.28D-06
 IDIUse=1 WtCom= 1.00D+00 WtEn= 0.00D+00
 Coeff-Com:  0.325D-04-0.177D-03-0.806D-03-0.173D-02 0.180D-02 0.199D-01
 Coeff-Com:  0.803D-01 0.336D+00 0.565D+00
 Coeff:      0.325D-04-0.177D-03-0.806D-03-0.173D-02 0.180D-02 0.199D-01
 Coeff:      0.803D-01 0.336D+00 0.565D+00
 Gap=     0.141 Goal=   None    Shift=    0.000
 RMSDP=4.85D-05 MaxDP=5.47D-03 DE=-9.32D-07 OVMax= 1.36D-04

 Cycle  10  Pass 1  IDiag  1:
 RMSU=  1.00D-05    CP:  1.16D+00  6.17D-01  9.86D-01  6.07D-01  9.51D-01
                    CP:  8.15D-01  8.63D-01  1.07D+00  9.33D-01
 E= -1146.55853580561     Delta-E=       -0.000000175539 Rises=F Damp=F
 DIIS: error= 5.47D-06 at cycle  10 NSaved=  10.
 NSaved=10 IEnMin=10 EnMin= -1146.55853580561     IErMin=10 ErrMin= 5.47D-06
 ErrMax= 5.47D-06  0.00D+00 EMaxC= 1.00D-01 BMatC= 3.02D-08 BMatP= 2.28D-07
 IDIUse=1 WtCom= 1.00D+00 WtEn= 0.00D+00
 Coeff-Com:  0.513D-04-0.770D-04-0.566D-03-0.173D-02-0.145D-02 0.118D-02
 Coeff-Com:  0.276D-01 0.149D+00 0.343D+00 0.483D+00
 Coeff:      0.513D-04-0.770D-04-0.566D-03-0.173D-02-0.145D-02 0.118D-02
 Coeff:      0.276D-01 0.149D+00 0.343D+00 0.483D+00
 Gap=     0.141 Goal=   None    Shift=    0.000
 RMSDP=1.19D-05 MaxDP=1.43D-03 DE=-1.76D-07 OVMax= 5.59D-05

 Cycle  11  Pass 1  IDiag  1:
 RMSU=  3.92D-06    CP:  1.16D+00  6.17D-01  9.87D-01  6.07D-01  9.51D-01
                    CP:  8.17D-01  8.66D-01  1.09D+00  9.60D-01  9.93D-01
 E= -1146.55853582887     Delta-E=       -0.000000023253 Rises=F Damp=F
 DIIS: error= 1.54D-06 at cycle  11 NSaved=  11.
 NSaved=11 IEnMin=11 EnMin= -1146.55853582887     IErMin=11 ErrMin= 1.54D-06
 ErrMax= 1.54D-06  0.00D+00 EMaxC= 1.00D-01 BMatC= 3.29D-09 BMatP= 3.02D-08
 IDIUse=1 WtCom= 1.00D+00 WtEn= 0.00D+00
 Coeff-Com:  0.151D-04-0.287D-05-0.176D-03-0.671D-03-0.119D-02-0.322D-02
 Coeff-Com:  0.430D-03 0.149D-01 0.840D-01 0.278D+00 0.628D+00
 Coeff:      0.151D-04-0.287D-05-0.176D-03-0.671D-03-0.119D-02-0.322D-02
 Coeff:      0.430D-03 0.149D-01 0.840D-01 0.278D+00 0.628D+00
 Gap=     0.141 Goal=   None    Shift=    0.000
 RMSDP=8.10D-06 MaxDP=1.06D-03 DE=-2.33D-08 OVMax= 1.57D-05

 Cycle  12  Pass 1  IDiag  1:
 RMSU=  1.33D-06    CP:  1.16D+00  6.17D-01  9.87D-01  6.07D-01  9.52D-01
                    CP:  8.17D-01  8.70D-01  1.09D+00  9.87D-01  1.04D+00
                    CP:  9.90D-01
 E= -1146.55853583142     Delta-E=       -0.000000002549 Rises=F Damp=F
 DIIS: error= 4.79D-07 at cycle  12 NSaved=  12.
 NSaved=12 IEnMin=12 EnMin= -1146.55853583142     IErMin=12 ErrMin= 4.79D-07
 ErrMax= 4.79D-07  0.00D+00 EMaxC= 1.00D-01 BMatC= 5.06D-10 BMatP= 3.29D-09
 IDIUse=1 WtCom= 1.00D+00 WtEn= 0.00D+00
 Coeff-Com:  0.902D-06 0.984D-05-0.578D-04-0.256D-03-0.604D-03-0.205D-02
 Coeff-Com: -0.212D-02-0.501D-02 0.199D-01 0.127D+00 0.380D+00 0.484D+00
 Coeff:      0.902D-06 0.984D-05-0.578D-04-0.256D-03-0.604D-03-0.205D-02
 Coeff:     -0.212D-02-0.501D-02 0.199D-01 0.127D+00 0.380D+00 0.484D+00
 Gap=     0.141 Goal=   None    Shift=    0.000
 RMSDP=2.04D-06 MaxDP=2.13D-04 DE=-2.55D-09 OVMax= 5.71D-06

 Cycle  13  Pass 1  IDiag  1:
 RMSU=  5.48D-07    CP:  1.16D+00  6.17D-01  9.87D-01  6.07D-01  9.52D-01
                    CP:  8.17D-01  8.70D-01  1.09D+00  9.92D-01  1.07D+00
                    CP:  1.01D+00  7.01D-01
 E= -1146.55853583186     Delta-E=       -0.000000000444 Rises=F Damp=F
 DIIS: error= 1.24D-07 at cycle  13 NSaved=  13.
 NSaved=13 IEnMin=13 EnMin= -1146.55853583186     IErMin=13 ErrMin= 1.24D-07
 ErrMax= 1.24D-07  0.00D+00 EMaxC= 1.00D-01 BMatC= 3.82D-11 BMatP= 5.06D-10
 IDIUse=1 WtCom= 1.00D+00 WtEn= 0.00D+00
 Coeff-Com: -0.404D-05 0.676D-05 0.584D-05 0.757D-05-0.630D-04-0.358D-03
 Coeff-Com: -0.103D-02-0.542D-02-0.565D-02 0.103D-01 0.604D-01 0.234D+00
 Coeff-Com:  0.708D+00
 Coeff:     -0.404D-05 0.676D-05 0.584D-05 0.757D-05-0.630D-04-0.358D-03
 Coeff:     -0.103D-02-0.542D-02-0.565D-02 0.103D-01 0.604D-01 0.234D+00
 Coeff:      0.708D+00
 Gap=     0.141 Goal=   None    Shift=    0.000
 RMSDP=5.56D-07 MaxDP=5.59D-05 DE=-4.44D-10 OVMax= 1.75D-06

 Cycle  14  Pass 1  IDiag  1:
 RMSU=  2.07D-07    CP:  1.16D+00  6.17D-01  9.87D-01  6.07D-01  9.52D-01
                    CP:  8.17D-01  8.70D-01  1.09D+00  9.95D-01  1.08D+00
                    CP:  1.05D+00  7.79D-01  1.19D+00
 E= -1146.55853583188     Delta-E=       -0.000000000017 Rises=F Damp=F
 DIIS: error= 4.23D-08 at cycle  14 NSaved=  14.
 NSaved=14 IEnMin=14 EnMin= -1146.55853583188     IErMin=14 ErrMin= 4.23D-08
 ErrMax= 4.23D-08  0.00D+00 EMaxC= 1.00D-01 BMatC= 5.05D-12 BMatP= 3.82D-11
 IDIUse=1 WtCom= 1.00D+00 WtEn= 0.00D+00
 Coeff-Com: -0.236D-05 0.340D-05 0.669D-05 0.178D-04 0.183D-05-0.699D-04
 Coeff-Com: -0.401D-03-0.246D-02-0.396D-02-0.196D-02 0.765D-02 0.931D-01
 Coeff-Com:  0.389D+00 0.519D+00
 Coeff:     -0.236D-05 0.340D-05 0.669D-05 0.178D-04 0.183D-05-0.699D-04
 Coeff:     -0.401D-03-0.246D-02-0.396D-02-0.196D-02 0.765D-02 0.931D-01
 Coeff:      0.389D+00 0.519D+00
 Gap=     0.141 Goal=   None    Shift=    0.000
 RMSDP=1.85D-07 MaxDP=2.20D-05 DE=-1.73D-11 OVMax= 5.12D-07

 Cycle  15  Pass 1  IDiag  1:
 RMSU=  4.43D-08    CP:  1.16D+00  6.17D-01  9.87D-01  6.07D-01  9.52D-01
                    CP:  8.17D-01  8.70D-01  1.09D+00  9.95D-01  1.08D+00
                    CP:  1.05D+00  7.93D-01  1.19D+00  7.50D-01
 E= -1146.55853583200     Delta-E=       -0.000000000125 Rises=F Damp=F
 DIIS: error= 8.36D-09 at cycle  15 NSaved=  15.
 NSaved=15 IEnMin=15 EnMin= -1146.55853583200     IErMin=15 ErrMin= 8.36D-09
 ErrMax= 8.36D-09  0.00D+00 EMaxC= 1.00D-01 BMatC= 2.75D-13 BMatP= 5.05D-12
 IDIUse=1 WtCom= 1.00D+00 WtEn= 0.00D+00
 Coeff-Com: -0.361D-06 0.403D-06 0.279D-05 0.736D-05 0.901D-05 0.559D-05
 Coeff-Com: -0.839D-04-0.546D-03-0.132D-02-0.242D-02-0.471D-02 0.131D-01
 Coeff-Com:  0.943D-01 0.213D+00 0.689D+00
 Coeff:     -0.361D-06 0.403D-06 0.279D-05 0.736D-05 0.901D-05 0.559D-05
 Coeff:     -0.839D-04-0.546D-03-0.132D-02-0.242D-02-0.471D-02 0.131D-01
 Coeff:      0.943D-01 0.213D+00 0.689D+00
 Gap=     0.141 Goal=   None    Shift=    0.000
 RMSDP=8.11D-08 MaxDP=9.28D-06 DE=-1.25D-10 OVMax= 1.24D-07

 Cycle  16  Pass 1  IDiag  1:
 RMSU=  1.26D-08    CP:  1.16D+00  6.17D-01  9.87D-01  6.07D-01  9.52D-01
                    CP:  8.17D-01  8.70D-01  1.09D+00  9.95D-01  1.08D+00
                    CP:  1.06D+00  7.96D-01  1.22D+00  7.90D-01  1.01D+00
 E= -1146.55853583195     Delta-E=        0.000000000049 Rises=F Damp=F
 DIIS: error= 4.45D-09 at cycle  16 NSaved=  16.
 NSaved=16 IEnMin=15 EnMin= -1146.55853583200     IErMin=16 ErrMin= 4.45D-09
 ErrMax= 4.45D-09  0.00D+00 EMaxC= 1.00D-01 BMatC= 5.14D-14 BMatP= 2.75D-13
 IDIUse=1 WtCom= 1.00D+00 WtEn= 0.00D+00
 Coeff-Com:  0.792D-07-0.163D-06 0.882D-06 0.193D-05 0.510D-05 0.107D-04
 Coeff-Com: -0.233D-06-0.187D-04-0.253D-03-0.950D-03-0.314D-02-0.233D-02
 Coeff-Com:  0.122D-01 0.626D-01 0.364D+00 0.568D+00
 Coeff:      0.792D-07-0.163D-06 0.882D-06 0.193D-05 0.510D-05 0.107D-04
 Coeff:     -0.233D-06-0.187D-04-0.253D-03-0.950D-03-0.314D-02-0.233D-02
 Coeff:      0.122D-01 0.626D-01 0.364D+00 0.568D+00
 Gap=     0.141 Goal=   None    Shift=    0.000
 RMSDP=2.30D-08 MaxDP=2.27D-06 DE= 4.91D-11 OVMax= 5.15D-08

 Cycle  17  Pass 1  IDiag  1:
 RMSU=  4.69D-09    CP:  1.16D+00  6.17D-01  9.87D-01  6.07D-01  9.52D-01
                    CP:  8.17D-01  8.70D-01  1.09D+00  9.95D-01  1.08D+00
                    CP:  1.06D+00  7.98D-01  1.23D+00  7.94D-01  1.06D+00
                    CP:  8.41D-01
 E= -1146.55853583197     Delta-E=       -0.000000000013 Rises=F Damp=F
 DIIS: error= 2.60D-09 at cycle  17 NSaved=  17.
 NSaved=17 IEnMin=15 EnMin= -1146.55853583200     IErMin=17 ErrMin= 2.60D-09
 ErrMax= 2.60D-09  0.00D+00 EMaxC= 1.00D-01 BMatC= 4.61D-15 BMatP= 5.14D-14
 IDIUse=1 WtCom= 1.00D+00 WtEn= 0.00D+00
 Coeff-Com:  0.884D-07-0.133D-06 0.237D-06 0.303D-06 0.184D-05 0.465D-05
 Coeff-Com:  0.562D-05 0.339D-04-0.211D-04-0.249D-03-0.112D-02-0.219D-02
 Coeff-Com: -0.176D-02 0.126D-01 0.108D+00 0.273D+00 0.612D+00
 Coeff:      0.884D-07-0.133D-06 0.237D-06 0.303D-06 0.184D-05 0.465D-05
 Coeff:      0.562D-05 0.339D-04-0.211D-04-0.249D-03-0.112D-02-0.219D-02
 Coeff:     -0.176D-02 0.126D-01 0.108D+00 0.273D+00 0.612D+00
 Gap=     0.141 Goal=   None    Shift=    0.000
 RMSDP=7.27D-09 MaxDP=1.34D-06 DE=-1.32D-11 OVMax= 1.99D-08

 Cycle  18  Pass 1  IDiag  1:
 RMSU=  2.17D-09    CP:  1.16D+00  6.17D-01  9.87D-01  6.07D-01  9.52D-01
                    CP:  8.17D-01  8.70D-01  1.09D+00  9.95D-01  1.08D+00
                    CP:  1.06D+00  7.97D-01  1.23D+00  8.04D-01  1.08D+00
                    CP:  9.19D-01  7.53D-01
 E= -1146.55853583198     Delta-E=       -0.000000000018 Rises=F Damp=F
 DIIS: error= 1.05D-09 at cycle  18 NSaved=  18.
 NSaved=18 IEnMin=15 EnMin= -1146.55853583200     IErMin=18 ErrMin= 1.05D-09
 ErrMax= 1.05D-09  0.00D+00 EMaxC= 1.00D-01 BMatC= 1.17D-15 BMatP= 4.61D-15
 IDIUse=1 WtCom= 1.00D+00 WtEn= 0.00D+00
 Large coefficients: NSaved= 18 BigCof=    0.00 CofMax=   10.00 Det=-5.03D-15
 Inversion failed.  Reducing to 17 matrices.
 Large coefficients: NSaved= 17 BigCof=    0.00 CofMax=   10.00 Det=-5.13D-15
 Inversion failed.  Reducing to 16 matrices.
 Large coefficients: NSaved= 16 BigCof=    0.00 CofMax=   10.00 Det=-5.17D-15
 Inversion failed.  Reducing to 15 matrices.
 Coeff-Com: -0.694D-07 0.392D-06 0.171D-05 0.498D-05 0.214D-04 0.446D-04
 Coeff-Com:  0.110D-03 0.189D-03-0.242D-03-0.230D-02-0.666D-02-0.327D-01
 Coeff-Com:  0.250D-01 0.390D+00 0.627D+00
 Coeff:     -0.694D-07 0.392D-06 0.171D-05 0.498D-05 0.214D-04 0.446D-04
 Coeff:      0.110D-03 0.189D-03-0.242D-03-0.230D-02-0.666D-02-0.327D-01
 Coeff:      0.250D-01 0.390D+00 0.627D+00
 Gap=     0.141 Goal=   None    Shift=    0.000
 RMSDP=3.68D-09 MaxDP=5.70D-07 DE=-1.82D-11 OVMax= 1.20D-08

 Error on total polarization charges =  0.03990
 SCF Done:  E(RB3LYP) =  -1146.55853583     A.U. after   18 cycles
            NFock= 18  Conv=0.37D-08     -V/T= 2.0096
 KE= 1.135704330766D+03 PE=-6.869791549951D+03 EE= 2.519338447341D+03
 Leave Link  502 at Thu Jan  7 12:43:03 2021, MaxMem=   786432000 cpu:      6735.8
 (Enter /opt/QChem/g09/l801.exe)
 DoSCS=F DFT=T ScalE2(SS,OS)=  1.000000  1.000000
 ExpMin= 3.60D-02 ExpMax= 5.48D+03 ExpMxC= 8.25D+02 IAcc=3 IRadAn=         5 AccDes= 0.00D+00
 HarFok:  IExCor=  205 AccDes= 0.00D+00 IRadAn=         5 IDoV=-2 UseB2=F ITyADJ=14
 ICtDFT= 12500011 ScaDFX=  1.000000  1.000000  1.000000  1.000000
 Largest valence mixing into a core orbital is  6.55D-05
 Largest core mixing into a valence orbital is  1.28D-05
 Range of M.O.s used for correlation:    26   547
 NBasis=   553 NAE=    88 NBE=    88 NFC=    25 NFV=     0
 NROrb=    522 NOA=    63 NOB=    63 NVA=   459 NVB=   459

 **** Warning!!: The largest alpha MO coefficient is  0.16036744D+03

 Leave Link  801 at Thu Jan  7 12:43:04 2021, MaxMem=   786432000 cpu:         5.4
 (Enter /opt/QChem/g09/l914.exe)
 RHF ground state
 MDV=   786432000 DFT=T DoStab=F Mixed=T DoRPA=T DoScal=F NonHer=T
 Would need an additional         34861700000 words for in-memory AO integral storage.
 NEqPCM:  Using non-equilibrium solvation (IEInf=1, Eps=  78.3553, EpsInf=   1.7778)
 Inv3:  Mode=1 IEnd=    26196075.
 Iteration    1 A*A^-1 deviation from unit magnitude is 8.99D-15 for   2952.
 Iteration    1 A*A^-1 deviation from orthogonality  is 5.37D-15 for   2943   2893.
 Iteration    1 A^-1*A deviation from unit magnitude is 8.99D-15 for   2952.
 Iteration    1 A^-1*A deviation from orthogonality  is 2.97D-15 for   2940   2922.
 Making orbital integer symmetry assigments:
 Orbital symmetries:
       Occupied  (A) (A) (A) (A) (A) (A) (A) (A) (A) (A) (A) (A)
                 (A) (A) (A) (A) (A) (A) (A) (A) (A) (A) (A) (A)
                 (A) (A) (A) (A) (A) (A) (A) (A) (A) (A) (A) (A)
                 (A) (A) (A) (A) (A) (A) (A) (A) (A) (A) (A) (A)
                 (A) (A) (A) (A) (A) (A) (A) (A) (A) (A) (A) (A)
                 (A) (A) (A) (A) (A) (A) (A) (A) (A) (A) (A) (A)
                 (A) (A) (A) (A) (A) (A) (A) (A) (A) (A) (A) (A)
                 (A) (A) (A) (A)
       Virtual   (A) (A) (A) (A) (A) (A) (A) (A) (A) (A) (A) (A)
                 (A) (A) (A) (A) (A) (A) (A) (A) (A) (A) (A) (A)
                 (A) (A) (A) (A) (A) (A) (A) (A) (A) (A) (A) (A)
                 (A) (A) (A) (A) (A) (A) (A) (A) (A) (A) (A) (A)
                 (A) (A) (A) (A) (A) (A) (A) (A) (A) (A) (A) (A)
                 (A) (A) (A) (A) (A) (A) (A) (A) (A) (A) (A) (A)
                 (A) (A) (A) (A) (A) (A) (A) (A) (A) (A) (A) (A)
                 (A) (A) (A) (A) (A) (A) (A) (A) (A) (A) (A) (A)
                 (A) (A) (A) (A) (A) (A) (A) (A) (A) (A) (A) (A)
                 (A) (A) (A) (A) (A) (A) (A) (A) (A) (A) (A) (A)
                 (A) (A) (A) (A) (A) (A) (A) (A) (A) (A) (A) (A)
                 (A) (A) (A) (A) (A) (A) (A) (A) (A) (A) (A) (A)
                 (A) (A) (A) (A) (A) (A) (A) (A) (A) (A) (A) (A)
                 (A) (A) (A) (A) (A) (A) (A) (A) (A) (A) (A) (A)
                 (A) (A) (A) (A) (A) (A) (A) (A) (A) (A) (A) (A)
                 (A) (A) (A) (A) (A) (A) (A) (A) (A) (A) (A) (A)
                 (A) (A) (A) (A) (A) (A) (A) (A) (A) (A) (A) (A)
                 (A) (A) (A) (A) (A) (A) (A) (A) (A) (A) (A) (A)
                 (A) (A) (A) (A) (A) (A) (A) (A) (A) (A) (A) (A)
                 (A) (A) (A) (A) (A) (A) (A) (A) (A) (A) (A) (A)
                 (A) (A) (A) (A) (A) (A) (A) (A) (A) (A) (A) (A)
                 (A) (A) (A) (A) (A) (A) (A) (A) (A) (A) (A) (A)
                 (A) (A) (A) (A) (A) (A) (A) (A) (A) (A) (A) (A)
                 (A) (A) (A) (A) (A) (A) (A) (A) (A) (A) (A) (A)
                 (A) (A) (A) (A) (A) (A) (A) (A) (A) (A) (A) (A)
                 (A) (A) (A) (A) (A) (A) (A) (A) (A) (A) (A) (A)
                 (A) (A) (A) (A) (A) (A) (A) (A) (A) (A) (A) (A)
                 (A) (A) (A) (A) (A) (A) (A) (A) (A) (A) (A) (A)
                 (A) (A) (A) (A) (A) (A) (A) (A) (A) (A) (A) (A)
                 (A) (A) (A) (A) (A) (A) (A) (A) (A) (A) (A) (A)
                 (A) (A) (A) (A) (A) (A) (A) (A) (A) (A) (A) (A)
                 (A) (A) (A) (A) (A) (A) (A) (A) (A) (A) (A) (A)
                 (A) (A) (A) (A) (A) (A) (A) (A) (A) (A) (A) (A)
                 (A) (A) (A) (A) (A) (A) (A) (A) (A) (A) (A) (A)
                 (A) (A) (A) (A) (A) (A) (A) (A) (A) (A) (A) (A)
                 (A) (A) (A) (A) (A) (A) (A) (A) (A) (A) (A) (A)
                 (A) (A) (A) (A) (A) (A) (A) (A) (A) (A) (A) (A)
                 (A) (A) (A) (A) (A) (A) (A) (A) (A) (A) (A) (A)
                 (A) (A) (A)
    40 initial guesses have been made.
 Convergence on wavefunction:    0.001000000000000
 Davidson Disk Diagonalization:  ConvIn= 1.00D-03 SkipCon=T Conv= 1.00D-03.
 Max sub-space:   200 roots to seek:    40 dimension of matrix:        57834
 Iteration     1 Dimension    40 NMult     0 NNew     40
 CISAX will form    40 AO SS matrices at one time.
 NMat=    40 NSing=    40 JSym2X= 0.
 FoFJK:  IHMeth= 1 ICntrl=       0 DoSepK=F KAlg= 0 I1Cent=   0 FoldK=F
 IRaf=         0 NMat=  80 IRICut=     100 DoRegI=T DoRafI=T ISym2E= 0.
 New state      7 was old state      9
 New state      8 was old state      7
 New state      9 was old state     12
 Excitation Energies [eV] at current iteration:
 Root      1 :     3.297505374681478
 Root      2 :     3.362459247807548
 Root      3 :     3.668868069923523
 Root      4 :     3.714406637113140
 Root      5 :     3.816371828728872
 Root      6 :     3.838163187140333
 Root      7 :     4.162747854944886
 Root      8 :     4.199079048671073
 Root      9 :     4.224884599575994
 Root     10 :     4.249252050003136
 Root     11 :     4.274996738416491
 Root     12 :     4.294194227208116
 Root     13 :     4.363520953712777
 Root     14 :     4.386564857935091
 Root     15 :     4.554507327721656
 Root     16 :     4.561496102028015
 Root     17 :     4.588061520401420
 Root     18 :     4.637706813600632
 Root     19 :     4.677999639554091
 Root     20 :     4.699556789516964
 Root     21 :     4.741625743871029
 Root     22 :     4.759270857592020
 Root     23 :     4.804265247233132
 Root     24 :     4.838788047886424
 Root     25 :     4.870426724877280
 Root     26 :     4.876973270838059
 Root     27 :     4.902953590817309
 Root     28 :     4.914428371619167
 Root     29 :     4.953412178192031
 Root     30 :     4.994097519174866
 Root     31 :     5.008189421923955
 Root     32 :     5.082399639000932
 Root     33 :     5.087850206087492
 Root     34 :     5.096877943982429
 Root     35 :     5.109603512570102
 Root     36 :     5.134394115957710
 Root     37 :     5.217662630093051
 Root     38 :     5.250511508245862
 Root     39 :     5.772484035483444
 Root     40 :     6.141291993466261
 Iteration     2 Dimension    60 NMult    40 NNew     20
 CISAX will form    20 AO SS matrices at one time.
 NMat=    20 NSing=    20 JSym2X= 0.
 Root      1 not converged, maximum delta is    0.041405221107188
 Root      2 not converged, maximum delta is    0.040066108238608
 Root      3 not converged, maximum delta is    0.271441107014379
 Root      4 not converged, maximum delta is    0.253888099067394
 Root      5 not converged, maximum delta is    0.038470421925676
 Root      6 not converged, maximum delta is    0.038171012583041
 New state      7 was old state      8
 Root      7 not converged, maximum delta is    0.307561470333259
 New state      8 was old state     12
 Root      8 not converged, maximum delta is    0.306022705410827
 New state      9 was old state      7
 Root      9 not converged, maximum delta is    0.157164471185067
 New state     10 was old state      9
 Root     10 not converged, maximum delta is    0.120624138286015
 Excitation Energies [eV] at current iteration:
 Root      1 :     3.286222004007382   Change is   -0.011283370674095
 Root      2 :     3.336174457595917   Change is   -0.026284790211631
 Root      3 :     3.635161312998026   Change is   -0.033706756925496
 Root      4 :     3.666713061183952   Change is   -0.047693575929188
 Root      5 :     3.793295066966826   Change is   -0.023076761762046
 Root      6 :     3.813886383773829   Change is   -0.024276803366504
 Root      7 :     4.053156125791519   Change is   -0.145922922879554
 Root      8 :     4.099228925015594   Change is   -0.194965302192523
 Root      9 :     4.153178623943728   Change is   -0.009569231001157
 Root     10 :     4.210078125793436   Change is   -0.014806473782557
 Iteration     3 Dimension    80 NMult    60 NNew     20
 CISAX will form    20 AO SS matrices at one time.
 NMat=    20 NSing=    20 JSym2X= 0.
 Root      1 not converged, maximum delta is    0.005252890373790
 Root      2 not converged, maximum delta is    0.005274778977571
 Root      3 not converged, maximum delta is    0.027627647513174
 Root      4 not converged, maximum delta is    0.027950242918313
 Root      5 not converged, maximum delta is    0.002949810384756
 Root      6 not converged, maximum delta is    0.004173287698405
 Root      7 not converged, maximum delta is    0.151201029483263
 Root      8 not converged, maximum delta is    0.156132291294776
 Root      9 not converged, maximum delta is    0.023318578081233
 Root     10 not converged, maximum delta is    0.016841326950748
 Excitation Energies [eV] at current iteration:
 Root      1 :     3.285516179086322   Change is   -0.000705824921061
 Root      2 :     3.334145750486510   Change is   -0.002028707109407
 Root      3 :     3.631860543624598   Change is   -0.003300769373428
 Root      4 :     3.663764141158516   Change is   -0.002948920025436
 Root      5 :     3.792382927176012   Change is   -0.000912139790814
 Root      6 :     3.812984066856123   Change is   -0.000902316917706
 Root      7 :     4.034382677868514   Change is   -0.018773447923005
 Root      8 :     4.068210820308938   Change is   -0.031018104706657
 Root      9 :     4.152506985951948   Change is   -0.000671637991780
 Root     10 :     4.208455772373103   Change is   -0.001622353420333
 Iteration     4 Dimension   100 NMult    80 NNew     20
 CISAX will form    20 AO SS matrices at one time.
 NMat=    20 NSing=    20 JSym2X= 0.
 Root      1 not converged, maximum delta is    0.001269941165944
 Root      2 not converged, maximum delta is    0.002005351793916
 Root      3 not converged, maximum delta is    0.003336595954015
 Root      4 not converged, maximum delta is    0.003374267147218
 Root      5 has converged.
 Root      6 has converged.
 Root      7 not converged, maximum delta is    0.048575498368138
 Root      8 not converged, maximum delta is    0.049823817025711
 Root      9 not converged, maximum delta is    0.002378955573398
 Root     10 not converged, maximum delta is    0.003735165099500
 Excitation Energies [eV] at current iteration:
 Root      1 :     3.285422188750490   Change is   -0.000093990335832
 Root      2 :     3.333791971879787   Change is   -0.000353778606723
 Root      3 :     3.631434881247328   Change is   -0.000425662377270
 Root      4 :     3.663372802817941   Change is   -0.000391338340575
 Root      5 :     3.792288643462565   Change is   -0.000094283713447
 Root      6 :     3.812861826929835   Change is   -0.000122239926289
 Root      7 :     4.031080776579779   Change is   -0.003301901288735
 Root      8 :     4.062148699285345   Change is   -0.006062121023592
 Root      9 :     4.152414174160248   Change is   -0.000092811791700
 Root     10 :     4.208206944445244   Change is   -0.000248827927859
 Iteration     5 Dimension   116 NMult   100 NNew     16
 CISAX will form    16 AO SS matrices at one time.
 NMat=    16 NSing=    16 JSym2X= 0.
 Root      1 has converged.
 Root      2 has converged.
 Root      3 has converged.
 Root      4 has converged.
 Root      5 has converged.
 Root      6 has converged.
 Root      7 not converged, maximum delta is    0.005153328639303
 Root      8 not converged, maximum delta is    0.005306783458359
 Root      9 has converged.
 Root     10 not converged, maximum delta is    0.001103790663339
 Excitation Energies [eV] at current iteration:
 Root      1 :     3.285413691093188   Change is   -0.000008497657302
 Root      2 :     3.333761713892843   Change is   -0.000030257986943
 Root      3 :     3.631386107233138   Change is   -0.000048774014191
 Root      4 :     3.663320151324411   Change is   -0.000052651493530
 Root      5 :     3.792285148000654   Change is   -0.000003495461911
 Root      6 :     3.812856773450536   Change is   -0.000005053479298
 Root      7 :     4.030698858490658   Change is   -0.000381918089122
 Root      8 :     4.061427754901912   Change is   -0.000720944383433
 Root      9 :     4.152401172572082   Change is   -0.000013001588166
 Root     10 :     4.208168731851000   Change is   -0.000038212594244
 Iteration     6 Dimension   122 NMult   116 NNew      6
 CISAX will form     6 AO SS matrices at one time.
 NMat=     6 NSing=     6 JSym2X= 0.
 Root      1 has converged.
 Root      2 has converged.
 Root      3 has converged.
 Root      4 has converged.
 Root      5 has converged.
 Root      6 has converged.
 Root      7 has converged.
 Root      8 has converged.
 Root      9 has converged.
 Root     10 has converged.
 Excitation Energies [eV] at current iteration:
 Root      1 :     3.285413616588932   Change is   -0.000000074504255
 Root      2 :     3.333760930067679   Change is   -0.000000783825165
 Root      3 :     3.631383892615302   Change is   -0.000002214617836
 Root      4 :     3.663318356388399   Change is   -0.000001794936012
 Root      5 :     3.792284677164038   Change is   -0.000000470836616
 Root      6 :     3.812856101761225   Change is   -0.000000671689311
 Root      7 :     4.030658071338907   Change is   -0.000040787151751
 Root      8 :     4.061353341352118   Change is   -0.000074413549794
 Root      9 :     4.152400927359147   Change is   -0.000000245212935
 Root     10 :     4.208164114258025   Change is   -0.000004617592974
 Convergence achieved on expansion vectors.
 ***********************************************************************
 Excited states from <AA,BB:AA,BB> singles matrix:
 ***********************************************************************
 
 1PDM for each excited state written to RWF  633
 Ground to excited state transition densities written to RWF  633
 Ground to excited state transition electric dipole moments (Au):
       state          X           Y           Z        Dip. S.      Osc.
         1        -0.0847      0.0030     -0.0274      0.0079      0.0006
         2        -0.2785     -0.3004      0.0348      0.1690      0.0138
         3         0.1202      0.2207     -0.3250      0.1688      0.0150
         4         0.0406     -0.3682      0.0724      0.1425      0.0128
         5        -0.0052     -0.1904      0.1649      0.0635      0.0059
         6        -0.2001      0.0383     -0.0042      0.0415      0.0039
         7        -0.4333      0.3742      0.5588      0.6400      0.0632
         8        -0.0778      0.5062     -0.0341      0.2635      0.0262
         9         0.0014      0.1815      0.0768      0.0388      0.0040
        10         0.1192     -0.0933      0.0443      0.0249      0.0026
 Ground to excited state transition velocity dipole moments (Au):
       state          X           Y           Z        Dip. S.      Osc.
         1         0.0099     -0.0008      0.0030      0.0001      0.0006
         2         0.0328      0.0330     -0.0050      0.0022      0.0119
         3        -0.0151     -0.0282      0.0432      0.0029      0.0144
         4        -0.0048      0.0482     -0.0086      0.0024      0.0120
         5         0.0040      0.0246     -0.0169      0.0009      0.0043
         6         0.0228     -0.0091      0.0022      0.0006      0.0029
         7         0.0613     -0.0542     -0.0816      0.0134      0.0601
         8         0.0118     -0.0758      0.0052      0.0059      0.0264
         9         0.0043     -0.0251     -0.0097      0.0007      0.0032
        10        -0.0192      0.0099     -0.0017      0.0005      0.0020
 Ground to excited state transition magnetic dipole moments (Au):
       state          X           Y           Z
         1        -0.0003      0.0422      0.1295
         2        -0.0075      0.0354      0.0689
         3        -0.0061      0.0965      0.1147
         4        -0.0530      0.1384      0.0444
         5        -0.0040      0.0077      0.0896
         6        -0.0001      0.0688     -0.0228
         7        -0.0315     -0.0610      0.0440
         8        -0.1895      0.0249     -0.0117
         9        -0.0182      0.0704     -0.1302
        10        -0.0428     -0.1359     -0.0557
 Ground to excited state transition velocity quadrupole moments (Au):
       state          XX          YY          ZZ          XY          XZ          YZ
         1         0.0344     -0.1040      0.0242      0.0521      0.0292      0.0292
         2         0.1813     -0.0512     -0.0605      0.0259      0.0727      0.0661
         3         0.0278     -0.1924      0.0389      0.0829     -0.0572      0.0757
         4        -0.1967      0.2474      0.0009     -0.0106      0.1015     -0.1379
         5         0.1755      0.1111     -0.0834     -0.0458     -0.0469     -0.0539
         6         0.1346     -0.1008      0.0011      0.1614     -0.0459      0.0464
         7         0.1806      0.0811     -0.0249     -0.2347     -0.0561     -0.2898
         8         0.3240     -0.2192      0.0593     -0.5004     -0.3844      0.3060
         9        -0.0884     -0.0497      0.0889      0.0885      0.0400      0.0144
        10        -0.2419      0.0603      0.0577     -0.1624      0.0916      0.0035
 <0|del|b> * <b|rxdel|0> + <0|del|b> * <b|delr+rdel|0>
 Rotatory Strengths (R) in cgs (10**-40 erg-esu-cm/Gauss)
       state          XX          YY          ZZ    R(velocity)    E-M Angle
         1         1.5459      1.5118     -1.0239      0.6779       75.77
         2        -4.9327      4.9262      3.3384      1.1106       80.88
         3        11.1592      0.8550      0.3308      4.1150       73.21
         4         3.9062      1.1567     29.2761     11.4463       30.72
         5         1.5335     -6.3782     -1.9419     -2.2622      119.59
         6        -1.8643      1.6309     -3.1952     -1.1429      112.38
         7        37.7686   -101.3404     52.9721     -3.5332      103.63
         8       -79.7434      9.2428     50.6816     -6.6063      106.51
         9        -0.8323      4.8732     -6.7462     -0.9018       98.26
        10        -4.2884      1.3067      1.0337     -0.6493       97.39
 1/2[<0|r|b>*<b|rxdel|0> + (<0|rxdel|b>*<b|r|0>)*]
 Rotatory Strengths (R) in cgs (10**-40 erg-esu-cm/Gauss)
       state          XX          YY          ZZ     R(length)
         1        -0.0158     -0.0888      2.5068      0.8007
         2        -1.4737      7.5145     -1.6967      1.4480
         3         0.5172    -15.0652     26.3559      3.9360
         4         1.5210     36.0345     -2.2721     11.7611
         5        -0.0148      1.0367    -10.4517     -3.1433
         6        -0.0074     -1.8656     -0.0670     -0.6466
         7        -9.6557     16.1328    -17.3942     -3.6390
         8       -10.4265     -8.9195     -0.2820     -6.5427
         9         0.0184     -9.0337      7.0739     -0.6471
        10         3.6046     -8.9635      1.7472     -1.2039
  1/2[<0|del|b>*<b|r|0> + (<0|r|b>*<b|del|0>)*] (Au)
       state          X           Y           Z        Dip. S.   Osc.(frdel)
         1        -0.0008      0.0000     -0.0001      0.0009      0.0006
         2        -0.0091     -0.0099     -0.0002      0.0192      0.0128
         3        -0.0018     -0.0062     -0.0140      0.0221      0.0147
         4        -0.0002     -0.0177     -0.0006      0.0186      0.0124
         5         0.0000     -0.0047     -0.0028      0.0075      0.0050
         6        -0.0046     -0.0003      0.0000      0.0049      0.0033
         7        -0.0266     -0.0203     -0.0456      0.0925      0.0616
         8        -0.0009     -0.0384     -0.0002      0.0394      0.0263
         9         0.0000     -0.0046     -0.0007      0.0053      0.0035
        10        -0.0023     -0.0009     -0.0001      0.0033      0.0022

 Excitation energies and oscillator strengths:
 
 Excited State   1:      Singlet-A      3.2854 eV  377.38 nm  f=0.0006  <S**2>=0.000
      88 -> 89         0.69982
 This state for optimization and/or second-order correction.
 Total Energy, E(TD-HF/TD-KS) =  -1146.43779910    
 Copying the excited state density for this state as the 1-particle RhoCI density.
 
 Excited State   2:      Singlet-A      3.3338 eV  371.90 nm  f=0.0138  <S**2>=0.000
      87 -> 89         0.69977
 
 Excited State   3:      Singlet-A      3.6314 eV  341.42 nm  f=0.0150  <S**2>=0.000
      87 -> 90         0.11180
      88 -> 90         0.69310
 
 Excited State   4:      Singlet-A      3.6633 eV  338.45 nm  f=0.0128  <S**2>=0.000
      87 -> 90         0.69242
      88 -> 90        -0.10815
 
 Excited State   5:      Singlet-A      3.7923 eV  326.94 nm  f=0.0059  <S**2>=0.000
      87 -> 91         0.18882
      87 -> 94         0.23827
      88 -> 91         0.59038
      88 -> 93         0.20375
 
 Excited State   6:      Singlet-A      3.8129 eV  325.17 nm  f=0.0039  <S**2>=0.000
      87 -> 91         0.58257
      87 -> 93         0.17188
      88 -> 91        -0.16681
      88 -> 93        -0.11743
      88 -> 94         0.25615
 
 Excited State   7:      Singlet-A      4.0307 eV  307.60 nm  f=0.0632  <S**2>=0.000
      87 -> 92         0.13037
      88 -> 92         0.66998
 
 Excited State   8:      Singlet-A      4.0614 eV  305.28 nm  f=0.0262  <S**2>=0.000
      87 -> 92         0.66251
      87 -> 93         0.10241
      88 -> 92        -0.14055
      88 -> 96        -0.10664
 
 Excited State   9:      Singlet-A      4.1524 eV  298.58 nm  f=0.0040  <S**2>=0.000
      87 -> 91         0.14592
      87 -> 93        -0.15893
      87 -> 94         0.14861
      88 -> 91        -0.30410
      88 -> 93         0.49640
      88 -> 94        -0.24010
 
 Excited State  10:      Singlet-A      4.2082 eV  294.63 nm  f=0.0026  <S**2>=0.000
      87 -> 91        -0.30256
      87 -> 93         0.30894
      87 -> 94         0.32655
      87 -> 98         0.13951
      88 -> 93         0.19580
      88 -> 94         0.34395
 SavETr:  write IOETrn=   770 NScale= 10 NData=  16 NLR=1 NState=   10 LETran=     190.
 Leave Link  914 at Thu Jan  7 13:20:21 2021, MaxMem=   786432000 cpu:     17678.3
 (Enter /opt/QChem/g09/l601.exe)
 Copying SCF densities to generalized density rwf, IOpCl= 0 IROHF=0.

 **********************************************************************

            Population analysis using the SCF density.

 **********************************************************************

 Orbital symmetries:
       Occupied  (A) (A) (A) (A) (A) (A) (A) (A) (A) (A) (A) (A)
                 (A) (A) (A) (A) (A) (A) (A) (A) (A) (A) (A) (A)
                 (A) (A) (A) (A) (A) (A) (A) (A) (A) (A) (A) (A)
                 (A) (A) (A) (A) (A) (A) (A) (A) (A) (A) (A) (A)
                 (A) (A) (A) (A) (A) (A) (A) (A) (A) (A) (A) (A)
                 (A) (A) (A) (A) (A) (A) (A) (A) (A) (A) (A) (A)
                 (A) (A) (A) (A) (A) (A) (A) (A) (A) (A) (A) (A)
                 (A) (A) (A) (A)
       Virtual   (A) (A) (A) (A) (A) (A) (A) (A) (A) (A) (A) (A)
                 (A) (A) (A) (A) (A) (A) (A) (A) (A) (A) (A) (A)
                 (A) (A) (A) (A) (A) (A) (A) (A) (A) (A) (A) (A)
                 (A) (A) (A) (A) (A) (A) (A) (A) (A) (A) (A) (A)
                 (A) (A) (A) (A) (A) (A) (A) (A) (A) (A) (A) (A)
                 (A) (A) (A) (A) (A) (A) (A) (A) (A) (A) (A) (A)
                 (A) (A) (A) (A) (A) (A) (A) (A) (A) (A) (A) (A)
                 (A) (A) (A) (A) (A) (A) (A) (A) (A) (A) (A) (A)
                 (A) (A) (A) (A) (A) (A) (A) (A) (A) (A) (A) (A)
                 (A) (A) (A) (A) (A) (A) (A) (A) (A) (A) (A) (A)
                 (A) (A) (A) (A) (A) (A) (A) (A) (A) (A) (A) (A)
                 (A) (A) (A) (A) (A) (A) (A) (A) (A) (A) (A) (A)
                 (A) (A) (A) (A) (A) (A) (A) (A) (A) (A) (A) (A)
                 (A) (A) (A) (A) (A) (A) (A) (A) (A) (A) (A) (A)
                 (A) (A) (A) (A) (A) (A) (A) (A) (A) (A) (A) (A)
                 (A) (A) (A) (A) (A) (A) (A) (A) (A) (A) (A) (A)
                 (A) (A) (A) (A) (A) (A) (A) (A) (A) (A) (A) (A)
                 (A) (A) (A) (A) (A) (A) (A) (A) (A) (A) (A) (A)
                 (A) (A) (A) (A) (A) (A) (A) (A) (A) (A) (A) (A)
                 (A) (A) (A) (A) (A) (A) (A) (A) (A) (A) (A) (A)
                 (A) (A) (A) (A) (A) (A) (A) (A) (A) (A) (A) (A)
                 (A) (A) (A) (A) (A) (A) (A) (A) (A) (A) (A) (A)
                 (A) (A) (A) (A) (A) (A) (A) (A) (A) (A) (A) (A)
                 (A) (A) (A) (A) (A) (A) (A) (A) (A) (A) (A) (A)
                 (A) (A) (A) (A) (A) (A) (A) (A) (A) (A) (A) (A)
                 (A) (A) (A) (A) (A) (A) (A) (A) (A) (A) (A) (A)
                 (A) (A) (A) (A) (A) (A) (A) (A) (A) (A) (A) (A)
                 (A) (A) (A) (A) (A) (A) (A) (A) (A) (A) (A) (A)
                 (A) (A) (A) (A) (A) (A) (A) (A) (A) (A) (A) (A)
                 (A) (A) (A) (A) (A) (A) (A) (A) (A) (A) (A) (A)
                 (A) (A) (A) (A) (A) (A) (A) (A) (A) (A) (A) (A)
                 (A) (A) (A) (A) (A) (A) (A) (A) (A) (A) (A) (A)
                 (A) (A) (A) (A) (A) (A) (A) (A) (A) (A) (A) (A)
                 (A) (A) (A) (A) (A) (A) (A) (A) (A) (A) (A) (A)
                 (A) (A) (A) (A) (A) (A) (A) (A) (A) (A) (A) (A)
                 (A) (A) (A) (A) (A) (A) (A) (A) (A) (A) (A) (A)
                 (A) (A) (A) (A) (A) (A) (A) (A) (A) (A) (A) (A)
                 (A) (A) (A) (A) (A) (A) (A) (A) (A) (A) (A) (A)
                 (A) (A) (A)
 The electronic state is 1-A.
 Alpha  occ. eigenvalues --  -19.12068 -19.09886 -19.09770 -19.06636 -19.06603
 Alpha  occ. eigenvalues --  -10.27826 -10.24148 -10.21000 -10.20952 -10.19660
 Alpha  occ. eigenvalues --  -10.19399 -10.18918 -10.18772 -10.18578 -10.18265
 Alpha  occ. eigenvalues --  -10.16811 -10.16800 -10.16739 -10.16705 -10.16141
 Alpha  occ. eigenvalues --  -10.16051 -10.15511 -10.15467 -10.15314 -10.15297
 Alpha  occ. eigenvalues --   -1.02762  -0.99504  -0.94169  -0.94132  -0.93547
 Alpha  occ. eigenvalues --   -0.85100  -0.82050  -0.80899  -0.75853  -0.74464
 Alpha  occ. eigenvalues --   -0.71851  -0.71567  -0.71174  -0.68594  -0.63513
 Alpha  occ. eigenvalues --   -0.60665  -0.58942  -0.57900  -0.57586  -0.55288
 Alpha  occ. eigenvalues --   -0.53944  -0.52824  -0.49885  -0.48228  -0.46724
 Alpha  occ. eigenvalues --   -0.45210  -0.44724  -0.43691  -0.43053  -0.42457
 Alpha  occ. eigenvalues --   -0.42430  -0.42009  -0.41625  -0.40605  -0.39435
 Alpha  occ. eigenvalues --   -0.38942  -0.38846  -0.38564  -0.37963  -0.36427
 Alpha  occ. eigenvalues --   -0.35676  -0.35533  -0.35166  -0.34769  -0.34330
 Alpha  occ. eigenvalues --   -0.33557  -0.32246  -0.31744  -0.30677  -0.29032
 Alpha  occ. eigenvalues --   -0.28416  -0.25892  -0.25604  -0.25186  -0.24844
 Alpha  occ. eigenvalues --   -0.24143  -0.23320  -0.22744  -0.22547  -0.20633
 Alpha  occ. eigenvalues --   -0.20581  -0.16555  -0.16422
 Alpha virt. eigenvalues --   -0.02321  -0.00995  -0.00248   0.00525   0.00822
 Alpha virt. eigenvalues --    0.01050   0.01433   0.01919   0.02204   0.02500
 Alpha virt. eigenvalues --    0.02602   0.03057   0.03365   0.03916   0.04100
 Alpha virt. eigenvalues --    0.04567   0.04992   0.05323   0.05889   0.06285
 Alpha virt. eigenvalues --    0.06605   0.06850   0.07003   0.07584   0.08280
 Alpha virt. eigenvalues --    0.08648   0.09263   0.09684   0.10161   0.10360
 Alpha virt. eigenvalues --    0.10856   0.11440   0.11524   0.11884   0.12270
 Alpha virt. eigenvalues --    0.12594   0.12762   0.12793   0.13041   0.13265
 Alpha virt. eigenvalues --    0.13355   0.13506   0.13851   0.14038   0.14297
 Alpha virt. eigenvalues --    0.14688   0.14761   0.14815   0.14924   0.15158
 Alpha virt. eigenvalues --    0.15313   0.15651   0.16185   0.16550   0.16766
 Alpha virt. eigenvalues --    0.17123   0.17247   0.17578   0.17863   0.18072
 Alpha virt. eigenvalues --    0.18368   0.18776   0.19137   0.19166   0.19691
 Alpha virt. eigenvalues --    0.20120   0.20505   0.20934   0.21291   0.22040
 Alpha virt. eigenvalues --    0.22196   0.22402   0.22622   0.23124   0.23484
 Alpha virt. eigenvalues --    0.23628   0.23927   0.24177   0.24417   0.24682
 Alpha virt. eigenvalues --    0.25113   0.25390   0.25924   0.26033   0.26423
 Alpha virt. eigenvalues --    0.26738   0.26891   0.27417   0.27470   0.27787
 Alpha virt. eigenvalues --    0.28268   0.28462   0.28534   0.28955   0.29136
 Alpha virt. eigenvalues --    0.30208   0.30401   0.30518   0.30757   0.31389
 Alpha virt. eigenvalues --    0.31459   0.31727   0.31982   0.32451   0.32579
 Alpha virt. eigenvalues --    0.32727   0.33438   0.33864   0.34086   0.34711
 Alpha virt. eigenvalues --    0.34974   0.35361   0.35558   0.35705   0.36303
 Alpha virt. eigenvalues --    0.36428   0.36852   0.36962   0.37157   0.37634
 Alpha virt. eigenvalues --    0.37694   0.38260   0.38408   0.39085   0.39167
 Alpha virt. eigenvalues --    0.39848   0.40023   0.40437   0.41076   0.41197
 Alpha virt. eigenvalues --    0.41762   0.42141   0.42390   0.42931   0.43312
 Alpha virt. eigenvalues --    0.43556   0.43801   0.44358   0.45091   0.45812
 Alpha virt. eigenvalues --    0.46122   0.47058   0.47964   0.48099   0.48364
 Alpha virt. eigenvalues --    0.49200   0.50334   0.51604   0.53214   0.54622
 Alpha virt. eigenvalues --    0.56453   0.61039   0.61991   0.63475   0.63783
 Alpha virt. eigenvalues --    0.65828   0.66704   0.70578   0.72758   0.73194
 Alpha virt. eigenvalues --    0.73319   0.74197   0.74718   0.75012   0.76011
 Alpha virt. eigenvalues --    0.76514   0.76762   0.77203   0.77359   0.78039
 Alpha virt. eigenvalues --    0.78609   0.78702   0.79160   0.80084   0.80515
 Alpha virt. eigenvalues --    0.81296   0.81732   0.83000   0.83216   0.83766
[...]
    24  C    0.703679   0.022144  -0.064473   0.009437  -0.012397  -2.802591
    25  C   -0.063112  -0.004588   0.020764  -0.000114  -0.002364  -0.277549
    26  C    0.412938  -0.001008  -0.064862   0.006941   0.006620  -1.126050
    27  H   -0.073862   0.012906   0.010016  -0.000917  -0.007694   0.450048
    28  C    0.078398   0.004935  -0.015994   0.000730   0.000729  -0.109053
    29  H   -0.001237   0.000007   0.000033  -0.000007  -0.000035  -0.007812
    30  H   -0.003060  -0.001121  -0.001103   0.000098   0.000452  -0.010267
    31  H    0.001908   0.000169  -0.000296   0.000003  -0.000058  -0.005792
    32  O    0.023716   0.009263   0.001808  -0.000606  -0.001027  -0.101571
    33  H   -0.008460  -0.010535  -0.000113  -0.000494  -0.000214   0.155575
    34  O   -0.347549  -0.000420   0.643267  -0.012295  -0.018094   0.004940
    35  O   -0.000013  -0.000006  -0.000148   0.000027   0.000001  -0.060914
    36  C    0.056494  -0.007453   0.003425  -0.000287  -0.001030  -1.195762
    37  O   -0.000950  -0.001281  -0.000957  -0.000021   0.000042   0.004206
    38  O   -0.000036  -0.000005   0.000013   0.000003  -0.000028  -0.001457
              13         14         15         16         17         18
     1  C    6.727050 -10.064846  -0.540414  -0.133088  -0.637511  -0.133742
     2  C    8.557725  -0.325465   1.731542   0.264450   0.613766   0.277217
     3  C    0.791343   1.890323   0.579100   0.135283   0.992087   0.089377
     4  C   -2.473590  -0.232708  -0.302188  -0.067313  -0.514190  -0.086213
     5  C   -1.672231   0.343688  -0.193740  -0.045281  -0.399396  -0.076926
     6  H    0.233671  -0.207471  -0.028660   0.003569   0.209173  -0.022024
     7  C   -0.473637   0.378962   0.028274   0.016038  -0.032998   0.023218
     8  H   -0.046712   0.025501   0.006370   0.001335  -0.005799  -0.002160
     9  C    0.075432   0.029336   0.065739   0.004457   0.039047   0.006501
    10  H   -0.016942   0.015512  -0.004527   0.000328  -0.008947   0.000803
    11  H    0.006517   0.004844  -0.001330   0.000373   0.001985   0.000248
    12  C   -6.454129  -8.274157  -3.876357  -0.203318  -5.680914  -0.584342
    13  C   37.155753 -27.402777   0.239573   0.390436   6.371657  -0.151731
    14  C  -27.402777  48.472454   1.620985   0.095924 -11.480831   0.997400
    15  C    0.239573   1.620985  13.192135  -0.046024  -4.779340   0.037039
    16  H    0.390436   0.095924  -0.046024   0.639116   0.021252   0.006423
    17  C    6.371657 -11.480831  -4.779340   0.021252  20.713325  -0.028716
    18  H   -0.151731   0.997400   0.037039   0.006423  -0.028716   0.848018
    19  C   -0.598831   1.000835   0.315688  -0.010554   0.033526  -0.005080
    20  H   -0.076188   0.127479   0.321287  -0.010929  -0.022499   0.004816
    21  H    0.077075  -0.152048   0.036231   0.000893   0.331352  -0.029494
    22  C  -14.283439   8.176877  -1.862352  -0.176507   1.993397  -0.357153
    23  C    7.007372  -8.979672   0.323391   0.000894  -0.448162  -0.113860
    24  C   -6.890854   7.957834  -0.416692  -0.018651  -0.572579   0.006700
    25  C    0.408199  -0.595490   0.033556   0.000312  -0.197456   0.001346
    26  C   -0.895846   2.223375  -0.024854   0.005330  -0.127895   0.160182
    27  H   -0.077179  -0.126141  -0.006169  -0.003576  -0.184863  -0.054966
    28  C   -0.054438   0.024556  -0.002312   0.001434   0.021653   0.040022
    29  H    0.002258  -0.004468  -0.000251  -0.000179   0.002947  -0.002975
    30  H    0.006753   0.003115   0.000397  -0.000009   0.008383  -0.001291
    31  H   -0.006376   0.005761  -0.000458  -0.000015  -0.001881  -0.000629
    32  O    0.440630  -0.347145   0.117612   0.015608  -0.016845  -0.004688
    33  H   -0.339036   0.145711  -0.046803  -0.016442  -0.030837  -0.006340
    34  O   -0.002873  -0.001448  -0.000114   0.000142  -0.000226  -0.000055
    35  O    0.013872  -0.010631  -0.311200  -0.000548  -0.338018  -0.002255
    36  C   -1.149890   1.419101  -0.047101  -0.004500   0.242405   0.057191
    37  O    0.072128  -0.084871  -0.004206  -0.002348  -0.013250  -0.010470
    38  O   -0.002823   0.010804  -0.000495   0.000353   0.001756   0.000848
              19         20         21         22         23         24
     1  C   -0.413093  -0.029101   0.022779 -18.624774  10.997256  -9.478808
     2  C    0.073084   0.018831  -0.002628 -26.572602   2.510093  -7.365382
     3  C    0.040294  -0.000548  -0.003024  -2.232733  -0.929767  -1.603010
     4  C   -0.030446  -0.001718  -0.000383   6.953561  -0.691822   2.586044
     5  C   -0.001671   0.003406   0.000133   1.974454  -0.203176   1.002750
     6  H   -0.021804  -0.002777   0.001300   0.247706  -0.026015  -0.010622
     7  C   -0.008863   0.000253  -0.000982  -0.012664  -0.406948   0.703679
     8  H    0.001433  -0.000225   0.000055   0.099367  -0.074897   0.022144
     9  C   -0.001807   0.000592  -0.000090  -0.043308  -0.044352  -0.064473
    10  H    0.000532   0.000166  -0.000091  -0.032847   0.002403   0.009437
    11  H   -0.000102   0.000004  -0.000006  -0.034724   0.003570  -0.012397
    12  C   -1.708764   0.044133   0.075937  -3.675697   5.345281  -2.802591
    13  C   -0.598831  -0.076188   0.077075 -14.283439   7.007372  -6.890854
    14  C    1.000835   0.127479  -0.152048   8.176877  -8.979672   7.957834
    15  C    0.315688   0.321287   0.036231  -1.862352   0.323391  -0.416692
    16  H   -0.010554  -0.010929   0.000893  -0.176507   0.000894  -0.018651
    17  C    0.033526  -0.022499   0.331352   1.993397  -0.448162  -0.572579
    18  H   -0.005080   0.004816  -0.029494  -0.357153  -0.113860   0.006700
    19  C    6.920335  -0.079449  -0.068212  -0.055730  -0.182562   0.195905
    20  H   -0.079449   0.635775  -0.003131  -0.031297   0.000092   0.000118
    21  H   -0.068212  -0.003131   0.633452  -0.016979   0.019859  -0.017669
    22  C   -0.055730  -0.031297  -0.016979  66.191561 -17.430859  10.512882
    23  C   -0.182562   0.000092   0.019859 -17.430859  23.794796  -6.821639
    24  C    0.195905   0.000118  -0.017669  10.512882  -6.821639  19.486042
    25  C   -0.025275   0.000140   0.000439  -6.604243  -1.315475   0.745521
    26  C    0.092958   0.000213  -0.005063  -6.046441   0.648688  -2.259469
    27  H    0.008324  -0.001038   0.002107   0.018051   0.116398   0.515934
    28  C   -0.002700  -0.000252  -0.002280   2.284835  -0.989039  -0.466711
    29  H    0.000353  -0.000002   0.000107   0.044548   0.020321   0.041396
    30  H    0.000615   0.000034   0.000061  -0.168499   0.081200  -0.169201
    31  H    0.000048  -0.000014  -0.000047   0.118469  -0.007372   0.082548
    32  O    0.001734   0.000632  -0.000068   0.111770   0.086433   0.116057
    33  H    0.000758   0.000513  -0.000357   0.619582  -0.309569   0.129406
    34  O   -0.000061  -0.000004   0.000000   0.007648   0.000140  -0.001597
    35  O    0.678834  -0.015031  -0.013474   0.007032  -0.001436   0.000311
    36  C    0.006645  -0.001104  -0.002794   5.087136  -5.437743   1.292269
    37  O    0.005287  -0.000734   0.000634  -0.023249  -0.083285  -0.015289
    38  O    0.000209   0.000001   0.000008  -0.089045  -0.133433   0.014760
              25         26         27         28         29         30
     1  C    0.736143  -1.469759   0.291705  -0.224633  -0.028199   0.011950
     2  C    0.887172  -0.040543  -0.581087   0.083742  -0.020242   0.020282
     3  C    0.055670  -0.483960  -0.614721   0.015135   0.000853   0.015052
     4  C    0.027651   0.168853   0.274803  -0.043376   0.003057  -0.005105
     5  C    0.019923  -0.123368   0.101130  -0.018007   0.000430   0.004505
     6  H   -0.010568  -0.036438  -0.064830   0.008074  -0.000180   0.002514
     7  C   -0.063112   0.412938  -0.073862   0.078398  -0.001237  -0.003060
     8  H   -0.004588  -0.001008   0.012906   0.004935   0.000007  -0.001121
     9  C    0.020764  -0.064862   0.010016  -0.015994   0.000033  -0.001103
    10  H   -0.000114   0.006941  -0.000917   0.000730  -0.000007   0.000098
    11  H   -0.002364   0.006620  -0.007694   0.000729  -0.000035   0.000452
    12  C   -0.277549  -1.126050   0.450048  -0.109053  -0.007812  -0.010267
    13  C    0.408199  -0.895846  -0.077179  -0.054438   0.002258   0.006753
    14  C   -0.595490   2.223375  -0.126141   0.024556  -0.004468   0.003115
    15  C    0.033556  -0.024854  -0.006169  -0.002312  -0.000251   0.000397
    16  H    0.000312   0.005330  -0.003576   0.001434  -0.000179  -0.000009
    17  C   -0.197456  -0.127895  -0.184863   0.021653   0.002947   0.008383
    18  H    0.001346   0.160182  -0.054966   0.040022  -0.002975  -0.001291
    19  C   -0.025275   0.092958   0.008324  -0.002700   0.000353   0.000615
    20  H    0.000140   0.000213  -0.001038  -0.000252  -0.000002   0.000034
    21  H    0.000439  -0.005063   0.002107  -0.002280   0.000107   0.000061
    22  C   -6.604243  -6.046441   0.018051   2.284835   0.044548  -0.168499
    23  C   -1.315475   0.648688   0.116398  -0.989039   0.020321   0.081200
    24  C    0.745521  -2.259469   0.515934  -0.466711   0.041396  -0.169201
    25  C   13.192171   0.149913   0.095787  -1.501822   0.245304   0.095962
    26  C    0.149913  14.670836  -0.058895  -0.695151  -0.024627   0.590959
    27  H    0.095787  -0.058895   0.901542  -0.096461   0.006278  -0.046339
    28  C   -1.501822  -0.695151  -0.096461   8.323919  -0.019067  -0.194431
    29  H    0.245304  -0.024627   0.006278  -0.019067   0.603898  -0.003702
    30  H    0.095962   0.590959  -0.046339  -0.194431  -0.003702   0.634305
    31  H   -0.137856  -0.165595  -0.000821   0.482705  -0.009617  -0.018204
    32  O   -0.036597   0.010051   0.010901   0.013333   0.000090  -0.000528
    33  H    0.020114  -0.010304   0.005964  -0.022434  -0.001215   0.000476
    34  O    0.000120  -0.002786   0.004253  -0.000350   0.000004  -0.000091
    35  O    0.000226  -0.000092   0.000049   0.000017   0.000008   0.000004
    36  C   -0.104420   0.736325  -0.023129  -0.552588  -0.011827   0.014525
    37  O   -0.011330   0.032362   0.003381  -0.013883   0.004898   0.000085
    38  O   -0.058938   0.003559   0.000404   0.030694  -0.004576  -0.000065
              31         32         33         34         35         36
     1  C   -0.038145  -0.083336  -0.252607   0.033460   0.016215  -4.172366
     2  C   -0.020288  -0.513960  -0.398588  -0.013375  -0.002506  -1.491618
     3  C   -0.004060  -0.089386  -0.079092  -0.073755  -0.001562  -0.043843
     4  C    0.006674   0.182062   0.116691   0.033510   0.000228   0.390295
     5  C    0.000868   0.008878   0.040918  -0.295424   0.000106   0.025809
     6  H    0.000183   0.006712   0.004230  -0.002725   0.001204   0.006507
     7  C    0.001908   0.023716  -0.008460  -0.347549  -0.000013   0.056494
     8  H    0.000169   0.009263  -0.010535  -0.000420  -0.000006  -0.007453
     9  C   -0.000296   0.001808  -0.000113   0.643267  -0.000148   0.003425
    10  H    0.000003  -0.000606  -0.000494  -0.012295   0.000027  -0.000287
    11  H   -0.000058  -0.001027  -0.000214  -0.018094   0.000001  -0.001030
    12  C   -0.005792  -0.101571   0.155575   0.004940  -0.060914  -1.195762
    13  C   -0.006376   0.440630  -0.339036  -0.002873   0.013872  -1.149890
    14  C    0.005761  -0.347145   0.145711  -0.001448  -0.010631   1.419101
    15  C   -0.000458   0.117612  -0.046803  -0.000114  -0.311200  -0.047101
    16  H   -0.000015   0.015608  -0.016442   0.000142  -0.000548  -0.004500
    17  C   -0.001881  -0.016845  -0.030837  -0.000226  -0.338018   0.242405
    18  H   -0.000629  -0.004688  -0.006340  -0.000055  -0.002255   0.057191
    19  C    0.000048   0.001734   0.000758  -0.000061   0.678834   0.006645
    20  H   -0.000014   0.000632   0.000513  -0.000004  -0.015031  -0.001104
    21  H   -0.000047  -0.000068  -0.000357   0.000000  -0.013474  -0.002794
    22  C    0.118469   0.111770   0.619582   0.007648   0.007032   5.087136
    23  C   -0.007372   0.086433  -0.309569   0.000140  -0.001436  -5.437743
    24  C    0.082548   0.116057   0.129406  -0.001597   0.000311   1.292269
    25  C   -0.137856  -0.036597   0.020114   0.000120   0.000226  -0.104420
    26  C   -0.165595   0.010051  -0.010304  -0.002786  -0.000092   0.736325
    27  H   -0.000821   0.010901   0.005964   0.004253   0.000049  -0.023129
    28  C    0.482705   0.013333  -0.022434  -0.000350   0.000017  -0.552588
    29  H   -0.009617   0.000090  -0.001215   0.000004   0.000008  -0.011827
    30  H   -0.018204  -0.000528   0.000476  -0.000091   0.000004   0.014525
    31  H    0.613488   0.000404  -0.000037  -0.000002   0.000000  -0.018763
    32  O    0.000404   8.505571   0.157958   0.000053  -0.000004  -0.029127
    33  H   -0.000037   0.157958   0.436062   0.000014  -0.000206   0.151921
    34  O   -0.000002   0.000053   0.000014   8.911866   0.000000   0.000033
    35  O    0.000000  -0.000004  -0.000206   0.000000   8.904099   0.000306
    36  C   -0.018763  -0.029127   0.151921   0.000033   0.000306   9.183516
    37  O   -0.000117  -0.042195   0.059157   0.000001  -0.000073   0.422372
    38  O    0.000742  -0.015010  -0.001967   0.000000   0.000000   0.418548
              37         38
     1  C    0.010335   0.041193
     2  C   -0.129954   0.008769
     3  C   -0.026002  -0.000113
     4  C    0.013535  -0.004480
     5  C    0.000247   0.000255
     6  H    0.000550  -0.000141
     7  C   -0.000950  -0.000036
     8  H   -0.001281  -0.000005
     9  C   -0.000957   0.000013
    10  H   -0.000021   0.000003
    11  H    0.000042  -0.000028
    12  C    0.004206  -0.001457
    13  C    0.072128  -0.002823
    14  C   -0.084871   0.010804
    15  C   -0.004206  -0.000495
    16  H   -0.002348   0.000353
    17  C   -0.013250   0.001756
    18  H   -0.010470   0.000848
    19  C    0.005287   0.000209
    20  H   -0.000734   0.000001
    21  H    0.000634   0.000008
    22  C   -0.023249  -0.089045
    23  C   -0.083285  -0.133433
    24  C   -0.015289   0.014760
    25  C   -0.011330  -0.058938
    26  C    0.032362   0.003559
    27  H    0.003381   0.000404
    28  C   -0.013883   0.030694
    29  H    0.004898  -0.004576
    30  H    0.000085  -0.000065
    31  H   -0.000117   0.000742
    32  O   -0.042195  -0.015010
    33  H    0.059157  -0.001967
    34  O    0.000001   0.000000
    35  O   -0.000073   0.000000
    36  C    0.422372   0.418548
    37  O    8.614792  -0.166203
    38  O   -0.166203   8.591877
 Mulliken charges:
               1
     1  C    0.723811
     2  C   -0.238880
     3  C   -0.355785
     4  C    0.195069
     5  C    0.014765
     6  H    0.165168
     7  C   -0.354433
     8  H    0.135370
     9  C   -0.100772
    10  H    0.110972
    11  H    0.112119
    12  C   -0.396726
    13  C    0.492074
    14  C   -0.680207
    15  C   -0.153329
    16  H    0.135331
    17  C   -0.074559
    18  H    0.117761
    19  C   -0.162391
    20  H    0.117557
    21  H    0.116399
    22  C   -0.073731
    23  C   -0.327104
    24  C   -0.434102
    25  C    0.210762
    26  C   -0.257096
    27  H    0.192708
    28  C   -0.389929
    29  H    0.163430
    30  H    0.131289
    31  H    0.122474
    32  O   -0.539182
    33  H    0.490601
    34  O   -0.866209
    35  O   -0.864424
    36  C    0.780523
    37  O   -0.613344
    38  O   -0.645980
 Sum of Mulliken charges =  -3.00000
 Mulliken charges with hydrogens summed into heavy atoms:
               1
     1  C    0.723811
     2  C   -0.238880
     3  C   -0.190617
     4  C    0.330439
     5  C    0.125738
     7  C   -0.242315
     9  C   -0.100772
    12  C   -0.396726
    13  C    0.627406
    14  C   -0.562446
    15  C   -0.035772
    17  C    0.041841
    19  C   -0.162391
    22  C   -0.073731
    23  C   -0.327104
    24  C   -0.241394
    25  C    0.374192
    26  C   -0.125807
    28  C   -0.267456
    32  O   -0.048580
    34  O   -0.866209
    35  O   -0.864424
    36  C    0.780523
    37  O   -0.613344
    38  O   -0.645980
 Electronic spatial extent (au):  <R**2>=           8392.9161
 Charge=             -3.0000 electrons
 Dipole moment (field-independent basis, Debye):
    X=             -2.3242    Y=            -10.9646    Z=              8.3675  Tot=             13.9871
 Quadrupole moment (field-independent basis, Debye-Ang):
   XX=           -343.1141   YY=           -280.0671   ZZ=           -177.3567
   XY=             21.7658   XZ=            -17.3484   YZ=            -32.5462
 Traceless Quadrupole moment (field-independent basis, Debye-Ang):
   XX=            -76.2681   YY=            -13.2211   ZZ=             89.4892
   XY=             21.7658   XZ=            -17.3484   YZ=            -32.5462
 Octapole moment (field-independent basis, Debye-Ang**2):
  XXX=           -602.8626  YYY=           -432.8081  ZZZ=             43.2403  XYY=            280.2513
  XXY=            -33.9341  XXZ=             56.6729  XZZ=             42.0928  YZZ=              8.3702
  YYZ=            -14.1686  XYZ=             88.5108
 Hexadecapole moment (field-independent basis, Debye-Ang**3):
 XXXX=         -10465.9374 YYYY=          -7808.0439 ZZZZ=          -1617.1402 XXXY=            120.5224
 XXXZ=           -193.9253 YYYX=            973.7569 YYYZ=           -554.6956 ZZZX=            -59.6949
 ZZZY=           -127.1701 XXYY=          -2507.9365 XXZZ=          -1390.6838 YYZZ=          -1197.7834
 XXYZ=           -217.8099 YYXZ=            -17.1844 ZZXY=            -63.0914
 N-N= 2.068190236011D+03 E-N=-6.869791550073D+03  KE= 1.135704330766D+03
 Leave Link  601 at Thu Jan  7 13:20:22 2021, MaxMem=   786432000 cpu:         3.7
 (Enter /opt/QChem/g09/l9999.exe)
 1\1\GINC-NB-40\SP\RB3LYP TD-FC\6-31++G(d,p)\C20H13O5(3-)\STUDENT\07-Ja
 n-2021\0\\#p b3lyp/6-31++g** geom=AllCheckpoint scrf(cpcm,solvent=wate
 r) scf=tight td=(singlet,nstates=10)\\Phenolphthalein in water pH14 st
 ructure\\-3,1\C,0,0.0540637413,-0.0686205123,0.0369147671\C,0,0.068657
 1899,-0.0496274187,1.5780952429\C,0,1.2089166836,-0.3198243662,2.34942
 43131\C,0,-1.1019324518,0.2876195843,2.2858022747\C,0,1.1929322972,-0.
 2667521828,3.7463719568\H,0,2.1376314602,-0.5794169976,1.8482226571\C,
 0,-1.1395769958,0.3409964102,3.676805219\H,0,-2.0075662493,0.513049732
 2,1.7268791402\C,0,0.0133424403,0.0638205433,4.4882217448\H,0,2.102524
 7024,-0.4875180953,4.3034901276\H,0,-2.0683535767,0.6008183255,4.18337
 27894\C,0,1.3076298426,-0.7569732315,-0.5473372411\C,0,1.4133971914,-2
 .1602567964,-0.4803336844\C,0,2.3896537601,-0.080846357,-1.134179659\C
 ,0,2.5222195878,-2.8493634585,-0.9655842495\H,0,0.5964537097,-2.724198
 6391,-0.0368571195\C,0,3.5127067351,-0.754037088,-1.6240844583\H,0,2.3
 660917056,1.0021935005,-1.2170740159\C,0,3.6412200715,-2.1790333605,-1
 .5657843523\H,0,2.5567481971,-3.9359495146,-0.8948315842\H,0,4.3250114
 423,-0.185250589,-2.0748315342\C,0,-0.0794329275,1.3874825025,-0.51509
 76899\C,0,-0.833090412,1.785167266,-1.6523882829\C,0,0.6227968828,2.39
 09446544,0.1806257271\C,0,-0.8451551164,3.1473806071,-2.0177646363\C,0
 ,0.6252308376,3.728433601,-0.2126562508\H,0,1.1832596413,2.1070080671,
 1.0647579552\C,0,-0.1192542843,4.115316905,-1.3286858464\H,0,-1.447409
 9492,3.4317251103,-2.8738945075\H,0,1.1955518364,4.4585490121,0.355401
 5321\H,0,-0.1416678422,5.1522045872,-1.6527081878\O,0,-1.1118768438,-0
 .8443545006,-0.3054823219\H,0,-1.1347262018,-0.8593767337,-1.292285728
 3\O,0,-0.0160185551,0.1113506494,5.7866891418\O,0,4.6806368635,-2.8154
 876325,-2.0175800728\C,0,-1.6509633348,0.8828618753,-2.591980961\O,0,-
 1.1938743928,-0.2758815914,-2.8677361107\O,0,-2.7079996795,1.372397285
 9,-3.0694333414\\Version=AS64L-G09RevD.01\State=1-A\HF=-1146.5585358\R
 MSD=3.678e-09\PG=C01 [X(C20H13O5)]\\@


 THE PROBLEM WITH THE LADDER OF SUCCESS IS YOU CAN'T
 CLIMB IT WHILE YOU'RE TWIDDLING YOUR THUMBS.
 Job cpu time:       0 days  6 hours 50 minutes 40.7 seconds.
 File lengths (MBytes):  RWF=    901 Int=      0 D2E=      0 Chk=    121 Scr=      1
 Normal termination of Gaussian 09 at Thu Jan  7 13:20:32 2021.
