 Entering Gaussian System, Link 0=/opt/QChem/g09/g09.exe
 Input=6_ph.com
 Output=6_ph.log
 Initial command:
 /opt/QChem/g09/l1.exe "/store/users/student/gaussian.ri8Mw6/Gau-14308.inp" -scrdir="/store/users/student/gaussian.ri8Mw6/"
 Entering Link 1 = /opt/QChem/g09/l1.exe PID=     14309.
  
 Copyright (c) 1988,1990,1992,1993,1995,1998,2003,2009,2013,
            Gaussian, Inc.  All Rights Reserved.
  
 This is part of the Gaussian(R) 09 program.  It is based on
 the Gaussian(R) 03 system (copyright 2003, Gaussian, Inc.),
 the Gaussian(R) 98 system (copyright 1998, Gaussian, Inc.),
 the Gaussian(R) 94 system (copyright 1995, Gaussian, Inc.),
 the Gaussian 92(TM) system (copyright 1992, Gaussian, Inc.),
 the Gaussian 90(TM) system (copyright 1990, Gaussian, Inc.),
 the Gaussian 88(TM) system (copyright 1988, Gaussian, Inc.),
 the Gaussian 86(TM) system (copyright 1986, Carnegie Mellon
 University), and the Gaussian 82(TM) system (copyright 1983,
 Carnegie Mellon University). Gaussian is a federally registered
 trademark of Gaussian, Inc.
  
 This software contains proprietary and confidential information,
 including trade secrets, belonging to Gaussian, Inc.
  
 This software is provided under written license and may be
 used, copied, transmitted, or stored only in accord with that
 written license.
  
 The following legend is applicable only to US Government
 contracts under FAR:
  
                    RESTRICTED RIGHTS LEGEND
  
 Use, reproduction and disclosure by the US Government is
 subject to restrictions as set forth in subparagraphs (a)
 and (c) of the Commercial Computer Software - Restricted
 Rights clause in FAR 52.227-19.
  
 Gaussian, Inc.
 340 Quinnipiac St., Bldg. 40, Wallingford CT 06492
  
  
 ---------------------------------------------------------------
 Warning -- This program may not be used in any manner that
 competes with the business of Gaussian, Inc. or will provide
 assistance to any competitor of Gaussian, Inc.  The licensee
 of this program is prohibited from giving any competitor of
 Gaussian, Inc. access to this program.  By using this program,
 the user acknowledges that Gaussian, Inc. is engaged in the
 business of creating and licensing software in the field of
 computational chemistry and represents and warrants to the
 licensee that it is not a competitor of Gaussian, Inc. and that
 it will not use this program in any manner prohibited above.
 ---------------------------------------------------------------
  

 Cite this work as:
 Gaussian 09, Revision D.01,
 M. J. Frisch, G. W. Trucks, H. B. Schlegel, G. E. Scuseria, 
 M. A. Robb, J. R. Cheeseman, G. Scalmani, V. Barone, B. Mennucci, 
 G. A. Petersson, H. Nakatsuji, M. Caricato, X. Li, H. P. Hratchian, 
 A. F. Izmaylov, J. Bloino, G. Zheng, J. L. Sonnenberg, M. Hada, 
 M. Ehara, K. Toyota, R. Fukuda, J. Hasegawa, M. Ishida, T. Nakajima, 
 Y. Honda, O. Kitao, H. Nakai, T. Vreven, J. A. Montgomery, Jr., 
 J. E. Peralta, F. Ogliaro, M. Bearpark, J. J. Heyd, E. Brothers, 
 K. N. Kudin, V. N. Staroverov, T. Keith, R. Kobayashi, J. Normand, 
 K. Raghavachari, A. Rendell, J. C. Burant, S. S. Iyengar, J. Tomasi, 
 M. Cossi, N. Rega, J. M. Millam, M. Klene, J. E. Knox, J. B. Cross, 
 V. Bakken, C. Adamo, J. Jaramillo, R. Gomperts, R. E. Stratmann, 
 O. Yazyev, A. J. Austin, R. Cammi, C. Pomelli, J. W. Ochterski, 
 R. L. Martin, K. Morokuma, V. G. Zakrzewski, G. A. Voth, 
 P. Salvador, J. J. Dannenberg, S. Dapprich, A. D. Daniels, 
 O. Farkas, J. B. Foresman, J. V. Ortiz, J. Cioslowski, 
 and D. J. Fox, Gaussian, Inc., Wallingford CT, 2013.
 
 ******************************************
 Gaussian 09:  AS64L-G09RevD.01 24-Apr-2013
                 3-Jan-2021 
 ******************************************
 %chk=6_ph.chk
 ----------------------------------------------------------------------
 #p B3LYP/6-31++g** td=(singlet,nstates=10) scrf(cpcm,solvent=water) sc
 f=tight geom=AllCheckpoint
 ----------------------------------------------------------------------
 1/29=7,38=1/1;
 2/12=2,40=1/2;
 3/5=1,6=6,7=1111,11=9,14=-4,16=1,25=1,30=1,70=2101,72=1,74=-5/1,2,8,3;
 4//1;
 5/5=2,32=2,38=5,53=1/2;
 8/6=1,10=2,108=10/1;
 9/41=10,42=1,48=1,70=2/14;
 6/7=2,8=2,9=2,10=2/1;
 99/5=1,9=1/99;
 Leave Link    1 at Sun Jan  3 17:35:08 2021, MaxMem=           0 cpu:         0.1
 (Enter /opt/QChem/g09/l101.exe)
 Structure from the checkpoint file:  "6_ph.chk"
 -----------------------------
 Phenolphthalein pH6 structure
 -----------------------------
 Charge =  0 Multiplicity = 1
 Redundant internal coordinates found in file.
 C,0,-0.2813544904,0.0955670355,0.1894246586
 C,0,-0.2629477089,0.0608307793,1.7133602778
 C,0,0.7867046505,0.7006259412,2.3977044774
 C,0,-1.2107210648,-0.6555886624,2.4636019958
 C,0,0.8865176248,0.6374405211,3.7875272131
 H,0,1.5347907996,1.252178311,1.8393106575
 C,0,-1.125591512,-0.7198512796,3.8558355718
 H,0,-2.0268994873,-1.1660169269,1.9670327415
 C,0,-0.0763566539,-0.0734897342,4.5183376782
 H,0,1.7046846886,1.1363521396,4.2975673823
 H,0,-1.8612906594,-1.2651618311,4.4352613224
 C,0,-0.0114472271,1.4800441114,-0.4045747493
 C,0,0.7931469405,1.6477432226,-1.5412434123
 C,0,-0.6435634565,2.6107260731,0.1458828072
 C,0,0.9699666042,2.9101018297,-2.1159266758
 H,0,1.2971141586,0.7941596141,-1.9763161641
 C,0,-0.4800491982,3.8727714582,-0.4251680455
 H,0,-1.2612542405,2.5099431253,1.0314195565
 C,0,0.3292343864,4.0230419688,-1.5582241027
 H,0,1.6041682728,3.0218539546,-2.9900036124
 H,0,-0.9650418794,4.7444264447,-0.0015559327
 C,0,-1.4936634116,-0.5658746595,-0.4652523062
 C,0,-1.1017161173,-1.7237639639,-1.1457972158
 C,0,-2.827606498,-0.1594027387,-0.4826935327
 C,0,-2.0139836378,-2.51422042,-1.8494629804
 C,0,-3.7522622944,-0.9470395817,-1.1848715134
 H,0,-3.1510819623,0.7412259435,0.026566888
 C,0,-3.3532926984,-2.1139687559,-1.861569949
 H,0,-1.685785124,-3.4063522797,-2.3711980704
 H,0,-4.7946184175,-0.6479587386,-1.2084161747
 H,0,-4.0898989577,-2.7015773673,-2.3977244467
 O,0,0.4574601945,5.3070313497,-2.0762899032
 H,0,1.0385478324,5.3310562444,-2.8617027279
 O,0,-0.0450774363,-0.1730135179,5.9032219402
 H,0,0.7150777362,0.3039100546,6.2904522414
 O,0,0.84376962,-0.8347010145,-0.2582922501
 C,0,0.3463528989,-1.9080022484,-1.0004395144
 O,0,1.0900580232,-2.7999440009,-1.4204416815
 Recover connectivity data from disk.
 NAtoms=     38 NQM=       38 NQMF=       0 NMMI=      0 NMMIF=      0
                NMic=       0 NMicF=      0.
                    Isotopes and Nuclear Properties:
 (Nuclear quadrupole moments (NQMom) in fm**2, nuclear magnetic moments (NMagM)
  in nuclear magnetons)

  Atom         1           2           3           4           5           6           7           8           9          10
 IAtWgt=          12          12          12          12          12           1          12           1          12           1
 AtmWgt=  12.0000000  12.0000000  12.0000000  12.0000000  12.0000000   1.0078250  12.0000000   1.0078250  12.0000000   1.0078250
 NucSpn=           0           0           0           0           0           1           0           1           0           1
 AtZEff=  -3.6000000  -3.6000000  -3.6000000  -3.6000000  -3.6000000  -1.0000000  -3.6000000  -1.0000000  -3.6000000  -1.0000000
 NQMom=    0.0000000   0.0000000   0.0000000   0.0000000   0.0000000   0.0000000   0.0000000   0.0000000   0.0000000   0.0000000
 NMagM=    0.0000000   0.0000000   0.0000000   0.0000000   0.0000000   2.7928460   0.0000000   2.7928460   0.0000000   2.7928460
 AtZNuc=   6.0000000   6.0000000   6.0000000   6.0000000   6.0000000   1.0000000   6.0000000   1.0000000   6.0000000   1.0000000

  Atom        11          12          13          14          15          16          17          18          19          20
 IAtWgt=           1          12          12          12          12           1          12           1          12           1
 AtmWgt=   1.0078250  12.0000000  12.0000000  12.0000000  12.0000000   1.0078250  12.0000000   1.0078250  12.0000000   1.0078250
 NucSpn=           1           0           0           0           0           1           0           1           0           1
 AtZEff=  -1.0000000  -3.6000000  -3.6000000  -3.6000000  -3.6000000  -1.0000000  -3.6000000  -1.0000000  -3.6000000  -1.0000000
 NQMom=    0.0000000   0.0000000   0.0000000   0.0000000   0.0000000   0.0000000   0.0000000   0.0000000   0.0000000   0.0000000
 NMagM=    2.7928460   0.0000000   0.0000000   0.0000000   0.0000000   2.7928460   0.0000000   2.7928460   0.0000000   2.7928460
 AtZNuc=   1.0000000   6.0000000   6.0000000   6.0000000   6.0000000   1.0000000   6.0000000   1.0000000   6.0000000   1.0000000

  Atom        21          22          23          24          25          26          27          28          29          30
 IAtWgt=           1          12          12          12          12          12           1          12           1           1
 AtmWgt=   1.0078250  12.0000000  12.0000000  12.0000000  12.0000000  12.0000000   1.0078250  12.0000000   1.0078250   1.0078250
 NucSpn=           1           0           0           0           0           0           1           0           1           1
 AtZEff=  -1.0000000  -3.6000000  -3.6000000  -3.6000000  -3.6000000  -3.6000000  -1.0000000  -3.6000000  -1.0000000  -1.0000000
 NQMom=    0.0000000   0.0000000   0.0000000   0.0000000   0.0000000   0.0000000   0.0000000   0.0000000   0.0000000   0.0000000
 NMagM=    2.7928460   0.0000000   0.0000000   0.0000000   0.0000000   0.0000000   2.7928460   0.0000000   2.7928460   2.7928460
 AtZNuc=   1.0000000   6.0000000   6.0000000   6.0000000   6.0000000   6.0000000   1.0000000   6.0000000   1.0000000   1.0000000

  Atom        31          32          33          34          35          36          37          38
 IAtWgt=           1          16           1          16           1          16          12          16
 AtmWgt=   1.0078250  15.9949146   1.0078250  15.9949146   1.0078250  15.9949146  12.0000000  15.9949146
 NucSpn=           1           0           1           0           1           0           0           0
 AtZEff=  -1.0000000  -5.6000000  -1.0000000  -5.6000000  -1.0000000  -5.6000000  -3.6000000  -5.6000000
 NQMom=    0.0000000   0.0000000   0.0000000   0.0000000   0.0000000   0.0000000   0.0000000   0.0000000
 NMagM=    2.7928460   0.0000000   2.7928460   0.0000000   2.7928460   0.0000000   0.0000000   0.0000000
 AtZNuc=   1.0000000   8.0000000   1.0000000   8.0000000   1.0000000   8.0000000   6.0000000   8.0000000
 Leave Link  101 at Sun Jan  3 17:35:09 2021, MaxMem=    33554432 cpu:         0.2
 (Enter /opt/QChem/g09/l202.exe)
                          Input orientation:                          
 ---------------------------------------------------------------------
 Center     Atomic      Atomic             Coordinates (Angstroms)
 Number     Number       Type             X           Y           Z
 ---------------------------------------------------------------------
      1          6           0       -0.281354    0.095567    0.189425
      2          6           0       -0.262948    0.060831    1.713360
      3          6           0        0.786705    0.700626    2.397704
      4          6           0       -1.210721   -0.655589    2.463602
      5          6           0        0.886518    0.637441    3.787527
      6          1           0        1.534791    1.252178    1.839311
      7          6           0       -1.125592   -0.719851    3.855836
      8          1           0       -2.026899   -1.166017    1.967033
      9          6           0       -0.076357   -0.073490    4.518338
     10          1           0        1.704685    1.136352    4.297567
     11          1           0       -1.861291   -1.265162    4.435261
     12          6           0       -0.011447    1.480044   -0.404575
     13          6           0        0.793147    1.647743   -1.541243
     14          6           0       -0.643563    2.610726    0.145883
     15          6           0        0.969967    2.910102   -2.115927
     16          1           0        1.297114    0.794160   -1.976316
     17          6           0       -0.480049    3.872771   -0.425168
     18          1           0       -1.261254    2.509943    1.031420
     19          6           0        0.329234    4.023042   -1.558224
     20          1           0        1.604168    3.021854   -2.990004
     21          1           0       -0.965042    4.744426   -0.001556
     22          6           0       -1.493663   -0.565875   -0.465252
     23          6           0       -1.101716   -1.723764   -1.145797
     24          6           0       -2.827606   -0.159403   -0.482694
     25          6           0       -2.013984   -2.514220   -1.849463
     26          6           0       -3.752262   -0.947040   -1.184872
     27          1           0       -3.151082    0.741226    0.026567
     28          6           0       -3.353293   -2.113969   -1.861570
     29          1           0       -1.685785   -3.406352   -2.371198
     30          1           0       -4.794618   -0.647959   -1.208416
     31          1           0       -4.089899   -2.701577   -2.397724
     32          8           0        0.457460    5.307031   -2.076290
     33          1           0        1.038548    5.331056   -2.861703
     34          8           0       -0.045077   -0.173014    5.903222
     35          1           0        0.715078    0.303910    6.290452
     36          8           0        0.843770   -0.834701   -0.258292
     37          6           0        0.346353   -1.908002   -1.000440
     38          8           0        1.090058   -2.799944   -1.420442
 ---------------------------------------------------------------------
                    Distance matrix (angstroms):
                    1          2          3          4          5
     1  C    0.000000
     2  C    1.524443   0.000000
     3  C    2.526529   1.406924   0.000000
     4  C    2.569015   1.405131   2.415237   0.000000
     5  C    3.821504   2.440475   1.394834   2.796983   0.000000
     6  H    2.712611   2.160332   1.084272   3.401051   2.143294
     7  C    3.849703   2.437995   2.792987   1.396313   2.428063
     8  H    2.792564   2.163569   3.403851   1.083174   3.880033
     9  C    4.337060   2.814384   2.416861   2.418173   1.402367
    10  H    4.680216   3.421469   2.154536   3.882534   1.085565
    11  H    4.730213   3.423697   3.876576   2.163853   3.404395
    12  C    1.530510   2.561849   3.016174   3.771687   4.369215
    13  C    2.561058   3.771747   4.051220   5.035833   5.424502
    14  C    2.541479   3.017254   3.280983   4.045034   4.415493
    15  C    3.847344   4.929692   5.028741   6.200131   6.326351
    16  H    2.769482   4.072502   4.404693   5.301309   5.780574
    17  C    3.832033   4.376223   4.431228   5.420786   5.484676
    18  H    2.738315   2.731265   3.055241   3.474808   3.964255
    19  C    4.341907   5.172336   5.186241   6.358941   6.352159
    20  H    4.714564   5.863055   5.923153   7.154649   7.220483
    21  H    4.702743   5.036858   5.017708   5.941172   5.886659
    22  C    1.528332   2.579491   3.873064   2.943857   5.019897
    23  C    2.401203   3.473196   4.690437   3.765719   5.819454
    24  C    2.645780   3.383582   4.701020   3.397231   5.715283
    25  C    3.737654   4.731884   6.018100   4.764690   7.079656
    26  C    3.875941   4.646597   6.012643   4.455977   6.982378
    27  H    2.945969   3.413141   4.596749   3.413976   5.518859
    28  C    4.304118   5.201933   6.572894   5.042281   7.580141
    29  H    4.559896   5.543414   6.761872   5.582802   7.803775
    30  H    4.782922   5.438309   6.780410   5.131091   7.673787
    31  H    5.387241   6.259191   7.638874   6.009012   8.612265
    32  O    5.730503   6.511763   6.429930   7.677648   7.508230
    33  H    6.201763   7.099322   7.011824   8.322139   8.140356
    34  O    5.724984   4.202034   3.707258   3.663685   2.449667
    35  H    6.185372   4.686725   3.913566   4.390230   2.530863
    36  O    1.527008   2.431916   3.068355   3.414926   4.305541
    37  C    2.413314   3.407677   4.306534   3.999075   5.449374
    38  O    3.585586   4.453692   5.188859   4.997763   6.243395
                    6          7          8          9         10
     6  H    0.000000
     7  C    3.877229   0.000000
     8  H    4.306927   2.139859   0.000000
     9  C    3.395641   1.399138   3.392254   0.000000
    10  H    2.466841   3.413368   4.965583   2.164386   0.000000
    11  H    4.960779   1.083675   2.475764   2.147783   4.301443
    12  C    2.734556   4.922596   4.085120   5.162630   5.017307
    13  C    3.483483   6.198026   5.308287   6.359025   5.931621
    14  C    3.075480   5.008877   4.415200   5.161889   4.992448
    15  C    4.325695   7.295880   6.501270   7.349155   6.694692
    16  H    3.850361   6.494284   5.517369   6.694757   6.296414
    17  C    4.006863   6.311569   5.788330   6.338312   5.879225
    18  H    3.170572   4.292703   3.869660   4.498523   4.620743
    19  C    4.546899   7.343269   6.701129   7.339665   6.671966
    20  H    5.143816   8.265438   7.436069   8.293401   7.528208
    21  H    4.672660   6.690559   6.319511   6.665697   6.215151
    22  C    4.217566   4.339468   2.561352   5.204553   5.984268
    23  C    4.971747   5.101445   3.294959   5.988087   6.759169
    24  C    5.139531   4.694017   2.766869   5.708509   6.713534
    25  C    6.355046   6.046440   4.047649   7.089460   8.058608
    26  C    6.475737   5.688562   3.599907   6.841196   8.010988
    27  H    5.050200   4.571724   2.943938   5.503971   6.478892
    28  C    6.994342   6.292451   4.161265   7.456882   8.607130
    29  H    7.057082   6.804929   4.894457   7.820738   8.752364
    30  H    7.277402   6.254084   4.244070   7.442293   8.702905
    31  H    8.076001   7.198706   5.066065   8.417083   9.650587
    32  O    5.738850   8.603457   8.026260   8.527841   7.718561
    33  H    6.243639   9.296360   8.655958   9.215049   8.324328
    34  O    4.587214   2.378725   4.517440   1.388808   2.711869
    35  H    4.624262   3.219240   5.326451   1.977167   2.375683
    36  O    3.038505   4.562633   3.647271   4.923644   5.038063
    37  C    4.411724   5.211692   3.871532   5.831039   6.259556
    38  O    5.219528   6.088924   4.884683   6.638010   6.969062
                   11         12         13         14         15
    11  H    0.000000
    12  C    5.863624   0.000000
    13  C    7.158887   1.402680   0.000000
    14  C    5.907972   1.407486   2.416168   0.000000
    15  C    8.268428   2.436589   1.398240   2.794439   0.000000
    16  H    7.438054   2.157114   1.082532   3.401451   2.145630
    17  C    7.206245   2.438269   2.795962   1.394846   2.426508
    18  H    5.118359   2.164437   3.403314   1.084377   3.878693
    19  C    8.287664   2.813149   2.420237   2.417634   1.400073
    20  H    9.247836   3.416407   2.155190   3.880091   1.085684
    21  H    7.523547   3.424611   3.879602   2.162814   3.402876
    22  C    4.963787   2.527139   3.359667   3.344690   4.569093
    23  C    5.651149   3.464460   3.887666   4.546003   5.167759
    24  C    5.132519   3.259546   4.182841   3.583122   5.148871
    25  C    6.409463   4.695956   5.029605   5.667851   6.196631
    26  C    5.938255   4.526952   5.246012   4.908423   6.167970
    27  H    5.012558   3.254081   4.340132   3.130003   5.126143
    28  C    6.526609   5.119345   5.607678   5.804760   6.632990
    29  H    7.137464   5.527014   5.690150   6.605085   6.856805
    30  H    6.390340   5.296535   6.050136   5.448340   6.834750
    31  H    7.329371   6.171902   6.595020   6.824056   7.561256
    32  O    9.537852   4.202420   3.713401   3.663382   2.451429
    33  H   10.254991   4.687245   3.920539   4.390361   2.534148
    34  O    2.578047   6.520892   7.709594   6.422955   8.651165
    35  H    3.541383   6.836265   7.946536   6.702465   8.804795
    36  O    5.434344   2.472011   2.794827   3.774452   4.182138
    37  C    5.902015   3.458603   3.624282   4.765805   4.984710
    38  O    6.734632   4.534710   4.459223   5.893570   5.753498
                   16         17         18         19         20
    16  H    0.000000
    17  C    3.878430   0.000000
    18  H    4.305303   2.142249   0.000000
    19  C    3.396656   1.400477   3.394904   0.000000
    20  H    2.466671   3.412683   4.964327   2.162828   0.000000
    21  H    4.962019   1.083719   2.479455   2.149131   4.301037
    22  C    3.452745   4.553087   3.428512   5.057242   5.370543
    23  C    3.575484   5.676882   4.763402   5.936623   5.765743
    24  C    4.489266   4.666129   3.445491   5.349323   6.003967
    25  C    4.682397   6.721253   5.840232   6.950632   6.711183
    26  C    5.399478   5.874956   4.802895   6.442027   6.906661
    27  H    4.878605   4.140659   2.776606   5.039294   6.075637
    28  C    5.486042   6.794103   5.841795   7.163513   7.226787
    29  H    5.167003   7.630627   6.838171   7.740616   7.247658
    30  H    6.307026   6.298094   5.241552   6.942224   7.588547
    31  H    6.435656   7.755260   6.849833   8.090365   8.095113
    32  O    4.591408   2.379544   4.520569   1.390490   2.715115
    33  H    4.629708   3.220160   5.329556   1.978152   2.380925
    34  O    8.051337   7.523702   5.693136   8.568557   9.592531
    35  H    8.301721   7.698354   6.035718   8.693822   9.711054
    36  O    2.410459   4.892917   4.157057   5.054922   4.786802
    37  C    3.026212   5.867812   5.121630   5.957239   5.462961
    38  O    3.642726   6.926827   6.303586   6.866657   6.051542
                   21         22         23         24         25
    21  H    0.000000
    22  C    5.356655   0.000000
    23  C    6.570042   1.399097   0.000000
    24  C    5.267654   1.394607   2.421906   0.000000
    25  C    7.563266   2.445981   1.397211   2.841691   0.000000
    26  C    6.446830   2.400918   2.762286   1.403002   2.432971
    27  H    4.561269   2.167357   3.413285   1.084027   3.925610
    28  C    7.496731   2.793657   2.394616   2.449076   1.397890
    29  H    8.518795   3.426055   2.161908   3.925925   1.084353
    30  H    6.723093   3.384573   3.846922   2.152788   3.409663
    31  H    8.423142   3.877643   3.384180   3.423942   2.155254
    32  O    2.577704   6.394791   7.261469   6.573668   8.205575
    33  H    3.541037   6.850464   7.569382   7.124042   8.478853
    34  O    7.739118   6.542951   7.294517   6.965814   8.334384
    35  H    7.882281   7.160629   7.918965   7.657726   9.035920
    36  O    5.870637   2.361926   2.315818   3.739704   3.676869
    37  C    6.853636   2.339528   1.466962   3.660557   2.580606
    38  O    7.946962   3.546698   2.457126   4.816630   3.146549
                   26         27         28         29         30
    26  C    0.000000
    27  H    2.163155   0.000000
    28  C    1.406706   3.429007   0.000000
    29  H    3.424313   5.009868   2.170382   0.000000
    30  H    1.084670   2.481175   2.157131   4.315743   0.000000
    31  H    2.159494   4.314100   1.084128   2.505429   2.475567
    32  O    7.591429   6.187905   8.345010   8.977947   7.987455
    33  H    8.073296   6.852856   8.701547   9.165418   8.515152
    34  O    8.036380   6.709558   8.660461   9.033960   8.564993
    35  H    8.797867   7.373920   9.426200   9.723907   9.353921
    36  O    4.689848   4.303897   4.671441   4.180479   5.720929
    37  C    4.213800   4.506129   3.804122   2.872911   5.297221
    38  O    5.190069   5.711479   4.517579   2.996160   6.269403
                   31         32         33         34         35
    31  H    0.000000
    32  O    9.215184   0.000000
    33  H    9.541459   0.977299   0.000000
    34  O    9.573919   9.693093  10.406389   0.000000
    35  H   10.373291   9.751921  10.446950   0.977363   0.000000
    36  O    5.692406   6.416793   6.695689   6.260362   6.648237
    37  C    4.718315   7.295650   7.506491   7.129091   7.627950
    38  O    5.272259   8.158025   8.257908   7.862909   8.320601
                   36         37         38
    36  O    0.000000
    37  C    1.396489   0.000000
    38  O    2.296395   1.234933   0.000000
 Stoichiometry    C20H14O4
 Framework group  C1[X(C20H14O4)]
 Deg. of freedom   108
 Full point group                 C1      NOp   1
 RotChk:  IX=0 Diff= 2.41D-15
 Largest Abelian subgroup         C1      NOp   1
 Largest concise Abelian subgroup C1      NOp   1
                         Standard orientation:                         
 ---------------------------------------------------------------------
 Center     Atomic      Atomic             Coordinates (Angstroms)
 Number     Number       Type             X           Y           Z
 ---------------------------------------------------------------------
      1          6           0        0.015878    0.208759    0.306597
      2          6           0        1.356503   -0.484995    0.093632
      3          6           0        1.595679   -1.717062    0.729430
      4          6           0        2.397828    0.096574   -0.649210
      5          6           0        2.830730   -2.356483    0.622881
      6          1           0        0.809975   -2.180851    1.315276
      7          6           0        3.636061   -0.537496   -0.769317
      8          1           0        2.249135    1.048228   -1.144701
      9          6           0        3.853033   -1.764391   -0.132736
     10          1           0        2.996736   -3.306046    1.122104
     11          1           0        4.436491   -0.093278   -1.349260
     12          6           0       -1.193718   -0.718188    0.164784
     13          6           0       -2.294603   -0.627011    1.029219
     14          6           0       -1.249484   -1.634117   -0.902446
     15          6           0       -3.423626   -1.430157    0.841226
     16          1           0       -2.270476    0.063347    1.862705
     17          6           0       -2.374692   -2.433620   -1.103187
     18          1           0       -0.406908   -1.732422   -1.577929
     19          6           0       -3.464015   -2.332060   -0.228888
     20          1           0       -4.262282   -1.352278    1.526283
     21          1           0       -2.418414   -3.140258   -1.923674
     22          6           0       -0.180681    1.506447   -0.476455
     23          6           0       -0.215434    2.596995    0.399312
     24          6           0       -0.345946    1.701977   -1.847361
     25          6           0       -0.402247    3.905425   -0.053802
     26          6           0       -0.532389    3.012209   -2.313133
     27          1           0       -0.335658    0.870268   -2.542536
     28          6           0       -0.559604    4.105461   -1.428327
     29          1           0       -0.427746    4.734409    0.644737
     30          1           0       -0.660995    3.184404   -3.376298
     31          1           0       -0.707616    5.106628   -1.817031
     32          8           0       -4.552677   -3.160351   -0.478310
     33          1           0       -5.268987   -3.033863    0.174387
     34          8           0        5.104319   -2.346324   -0.289017
     35          1           0        5.176660   -3.198599    0.183883
     36          8           0        0.043354    0.728181    1.742285
     37          6           0       -0.053012    2.120901    1.777329
     38          8           0       -0.005932    2.742908    2.843138
 ---------------------------------------------------------------------
 Rotational constants (GHZ):      0.2533150      0.2148738      0.1479631
 Leave Link  202 at Sun Jan  3 17:35:09 2021, MaxMem=    33554432 cpu:         0.0
 (Enter /opt/QChem/g09/l301.exe)
 Standard basis: 6-31++G(d,p) (6D, 7F)
 Ernie: Thresh=  0.10000D-02 Tol=  0.10000D-05 Strict=F.
 There are   540 symmetry adapted cartesian basis functions of A   symmetry.
 There are   540 symmetry adapted basis functions of A   symmetry.
   540 basis functions,   880 primitive gaussians,   540 cartesian basis functions
    83 alpha electrons       83 beta electrons
       nuclear repulsion energy      1935.2259891362 Hartrees.
 IExCor=  402 DFT=T Ex+Corr=B3LYP ExCW=0 ScaHFX=  0.200000
 ScaDFX=  0.800000  0.720000  1.000000  0.810000 ScalE2=  1.000000  1.000000
 IRadAn=      0 IRanWt=     -1 IRanGd=            0 ICorTp=0 IEmpDi=  4
 NAtoms=   38 NActive=   38 NUniq=   38 SFac= 1.00D+00 NAtFMM=   60 NAOKFM=F Big=F
 Integral buffers will be    131072 words long.
 Regular integral format.
 Two-electron integral symmetry is turned on.
 ------------------------------------------------------------------------------
 Polarizable Continuum Model (PCM)
 =================================
 Model                : C-PCM.
 Atomic radii         : UFF (Universal Force Field).
 Polarization charges : Total charges.
 Charge compensation  : None.
 Solution method      : On-the-fly selection.
 Cavity type          : Scaled VdW (van der Waals Surface) (Alpha=1.100).
 Cavity algorithm     : GePol (No added spheres)
                        Default sphere list used, NSphG=   38.
                        Lebedev-Laikov grids with approx.  5.0 points / Ang**2.
                        Smoothing algorithm: Karplus/York (Gamma=1.0000).
                        Polarization charges: spherical gaussians, with
                                              point-specific exponents (IZeta= 3).
                        Self-potential: point-specific (ISelfS= 7).
                        Self-field    : sphere-specific E.n sum rule (ISelfD= 2).
 Solvent              : Water, Eps=  78.355300 Eps(inf)=   1.777849
 ------------------------------------------------------------------------------
 GePol: Number of generator spheres                  =      38
 GePol: Total number of spheres                      =      38
 GePol: Number of exposed spheres                    =      38 (100.00%)
 GePol: Number of points                             =    2942
 GePol: Average weight of points                     =       0.13
 GePol: Minimum weight of points                     =   0.30D-11
 GePol: Maximum weight of points                     =    0.20577
 GePol: Number of points with low weight             =     193
 GePol: Fraction of low-weight points (<1% of avg)   =       6.56%
 GePol: Cavity surface area                          =    378.968 Ang**2
 GePol: Cavity volume                                =    421.141 Ang**3
 Leave Link  301 at Sun Jan  3 17:35:10 2021, MaxMem=    33554432 cpu:         0.1
 (Enter /opt/QChem/g09/l302.exe)
 NPDir=0 NMtPBC=     1 NCelOv=     1 NCel=       1 NClECP=     1 NCelD=      1
         NCelK=      1 NCelE2=     1 NClLst=     1 CellRange=     0.0.
 One-electron integrals computed using PRISM.
 NBasis=   540 RedAO= T EigKep=  1.24D-06  NBF=   540
 NBsUse=   533 1.00D-06 EigRej=  7.51D-07 NBFU=   533
 Precomputing XC quadrature grid using
 IXCGrd= 4 IRadAn=           0 IRanWt=          -1 IRanGd=           0 AccXCQ= 0.00D+00.
 Generated NRdTot=       0 NPtTot=           0 NUsed=           0 NTot=          32
 NSgBfM=   536   536   536   536   536 MxSgAt=    38 MxSgA2=    38.
 Leave Link  302 at Sun Jan  3 17:35:13 2021, MaxMem=    33554432 cpu:         2.6
 (Enter /opt/QChem/g09/l308.exe)
 Leave Link  308 at Sun Jan  3 17:35:14 2021, MaxMem=    33554432 cpu:         0.2
 (Enter /opt/QChem/g09/l303.exe)
 DipDrv:  MaxL=1.
 Leave Link  303 at Sun Jan  3 17:35:14 2021, MaxMem=    33554432 cpu:         0.2
 (Enter /opt/QChem/g09/l401.exe)
 ExpMin= 3.60D-02 ExpMax= 5.48D+03 ExpMxC= 8.25D+02 IAcc=3 IRadAn=         5 AccDes= 0.00D+00
 Harris functional with IExCor=  402 and IRadAn=       5 diagonalized for initial guess.
 HarFok:  IExCor=  402 AccDes= 0.00D+00 IRadAn=         5 IDoV= 1 UseB2=F ITyADJ=14
 ICtDFT=  3500011 ScaDFX=  1.000000  1.000000  1.000000  1.000000
 FoFCou: FMM=F IPFlag=           0 FMFlag=      100000 FMFlg1=           0
         NFxFlg=           0 DoJE=T BraDBF=F KetDBF=T FulRan=T
         wScrn=  0.000000 ICntrl=     500 IOpCl=  0 I1Cent=   200000004 NGrid=           0
         NMat0=    1 NMatS0=      1 NMatT0=    0 NMatD0=    1 NMtDS0=    0 NMtDT0=    0
 Petite list used in FoFCou.
 Harris En= -1071.52249117782    
 JPrj=0 DoOrth=F DoCkMO=F.
 Leave Link  401 at Sun Jan  3 17:36:22 2021, MaxMem=    33554432 cpu:        66.3
 (Enter /opt/QChem/g09/l502.exe)
 Closed shell SCF:
 Using DIIS extrapolation, IDIIS=  1040.
 Integral symmetry usage will be decided dynamically.
 IVT=      900622 IEndB=      900622 NGot=    33554432 MDV=    32962591
 LenX=    32962591 LenY=    32670451
 Requested convergence on RMS density matrix=1.00D-08 within 128 cycles.
 Requested convergence on MAX density matrix=1.00D-06.
 Requested convergence on             energy=1.00D-06.
 No special actions if energy rises.
 Fock matrices will be formed incrementally for  20 cycles.

 Cycle   1  Pass 1  IDiag  1:
 FoFJK:  IHMeth= 1 ICntrl=       0 DoSepK=F KAlg= 0 I1Cent=   0 FoldK=F
 IRaf= 810000000 NMat=   1 IRICut=       1 DoRegI=T DoRafI=F ISym2E= 0.
 FoFCou: FMM=F IPFlag=           0 FMFlag=      100000 FMFlg1=           0
         NFxFlg=           0 DoJE=F BraDBF=F KetDBF=F FulRan=T
         wScrn=  0.000000 ICntrl=       0 IOpCl=  0 I1Cent=           0 NGrid=           0
         NMat0=    1 NMatS0=      1 NMatT0=    0 NMatD0=    1 NMtDS0=    0 NMtDT0=    0
 Symmetry not used in FoFCou.
 Inv3:  Mode=2 IEnd=    17310728.
 Iteration    1 A*A^-1 deviation from unit magnitude is 4.88D-15 for   2923.
 Iteration    1 A*A^-1 deviation from orthogonality  is 3.70D-15 for   2937   2306.
 Iteration    1 A^-1*A deviation from unit magnitude is 4.88D-15 for   2923.
 Iteration    1 A^-1*A deviation from orthogonality  is 2.20D-15 for   2928   2319.
 E= -1071.07570939239    
 DIIS: error= 1.56D-02 at cycle   1 NSaved=   1.
 NSaved= 1 IEnMin= 1 EnMin= -1071.07570939239     IErMin= 1 ErrMin= 1.56D-02
 ErrMax= 1.56D-02  0.00D+00 EMaxC= 1.00D-01 BMatC= 5.00D-01 BMatP= 5.00D-01
 IDIUse=3 WtCom= 8.44D-01 WtEn= 1.56D-01
 Coeff-Com:  0.100D+01
 Coeff-En:   0.100D+01
 Coeff:      0.100D+01
 Gap=     0.146 Goal=   None    Shift=    0.000
 GapD=    0.146 DampG=1.000 DampE=0.500 DampFc=0.5000 IDamp=-1.
 Damping current iteration by 5.00D-01
 RMSDP=7.19D-02 MaxDP=6.87D+00              OVMax= 1.94D-01

 Cycle   2  Pass 1  IDiag  1:
 RMSU=  2.80D-02    CP:  1.25D+00
 E= -1071.25223379346     Delta-E=        E= -1071.52136023166     Delta-E=       -0.205463866278 Rises=F Damp=T
 DIIS: error= 7.17D-03 at cycle   2 NSaved=   2.
 NSaved= 2 IEnMin= 2 EnMin= -1071.52136023166     IErMin= 2 ErrMin= 7.17D-03
 ErrMax= 7.17D-03  0.00D+00 EMaxC= 1.00D-01 BMatC= 7.02D-02 BMatP= 6.56D-01
 IDIUse=3 WtCom= 9.28D-01 WtEn= 7.17D-02
 Coeff-Com:  0.122D+00 0.878D+00
 Coeff-En:   0.211D+00 0.789D+00
 Coeff:      0.128D+00 0.872D+00
 Gap=     0.161 Goal=   None    Shift=    0.000
 RMSDP=8.73D-04 MaxDP=2.09D-01 DE=-2.05D-01 OVMax= 1.69D-01

 Cycle   3  Pass 1  IDiag  1:
 RMSU=  6.26D-04    CP:  1.01D+00  6.23D-01
 E= -1071.78262042032     Delta-E=       -0.261260188655 Rises=F Damp=F
 DIIS: error= 1.02D-02 at cycle   3 NSaved=   3.
 NSaved= 3 IEnMin= 3 EnMin= -1071.78262042032     IErMin= 2 ErrMin= 7.17D-03
 ErrMax= 1.02D-02  0.00D+00 EMaxC= 1.00D-01 BMatC= 9.36D-02 BMatP= 7.02D-02
 IDIUse=2 WtCom= 0.00D+00 WtEn= 1.00D+00
 Coeff-En:   0.000D+00 0.000D+00 0.100D+01
 Coeff:      0.000D+00 0.000D+00 0.100D+01
 Gap=     0.161 Goal=   None    Shift=    0.000
 RMSDP=1.49D-03 MaxDP=3.40D-01 DE=-2.61D-01 OVMax= 2.67D-01

 Cycle   4  Pass 1  IDiag  1:
 RMSU=  6.29D-04    CP:  1.02D+00  1.16D+00 -6.47D-01
 E= -1071.38542769143     Delta-E=        0.397192728889 Rises=F Damp=F
 DIIS: error= 2.66D-02 at cycle   4 NSaved=   4.
 NSaved= 4 IEnMin= 3 EnMin= -1071.78262042032     IErMin= 2 ErrMin= 7.17D-03
 ErrMax= 2.66D-02  0.00D+00 EMaxC= 1.00D-01 BMatC= 5.91D-01 BMatP= 7.02D-02
 IDIUse=2 WtCom= 0.00D+00 WtEn= 1.00D+00
 Coeff-En:   0.000D+00 0.000D+00 0.807D+00 0.193D+00
 Coeff:      0.000D+00 0.000D+00 0.807D+00 0.193D+00
 Gap=     0.191 Goal=   None    Shift=    0.000
 RMSDP=9.15D-04 MaxDP=2.40D-01 DE= 3.97D-01 OVMax= 1.55D-01

 Cycle   5  Pass 1  IDiag  1:
 RMSU=  1.69D-04    CP:  1.01D+00  7.91D-01  2.43D-01  4.14D-01
 E= -1071.82067376600     Delta-E=       -0.435246074569 Rises=F Damp=F
 DIIS: error= 7.53D-03 at cycle   5 NSaved=   5.
 NSaved= 5 IEnMin= 5 EnMin= -1071.82067376600     IErMin= 2 ErrMin= 7.17D-03
 ErrMax= 7.53D-03  0.00D+00 EMaxC= 1.00D-01 BMatC= 4.68D-02 BMatP= 7.02D-02
 IDIUse=3 WtCom= 9.25D-01 WtEn= 7.53D-02
 Coeff-Com:  0.468D-02 0.845D-02 0.325D+00-0.829D-01 0.745D+00
 Coeff-En:   0.000D+00 0.000D+00 0.372D+00 0.000D+00 0.628D+00
 Coeff:      0.433D-02 0.781D-02 0.329D+00-0.767D-01 0.736D+00
 Gap=     0.164 Goal=   None    Shift=    0.000
 RMSDP=2.53D-04 MaxDP=4.55D-02 DE=-4.35D-01 OVMax= 5.44D-02

 Cycle   6  Pass 1  IDiag  1:
 RMSU=  3.30D-05    CP:  1.01D+00  7.11D-01  5.38D-01  2.51D-01  7.24D-01
 E= -1071.85760293260     Delta-E=       -0.036929166596 Rises=F Damp=F
 DIIS: error= 3.73D-04 at cycle   6 NSaved=   6.
 NSaved= 6 IEnMin= 6 EnMin= -1071.85760293260     IErMin= 6 ErrMin= 3.73D-04
 ErrMax= 3.73D-04  0.00D+00 EMaxC= 1.00D-01 BMatC= 2.72D-04 BMatP= 4.68D-02
 IDIUse=3 WtCom= 9.96D-01 WtEn= 3.73D-03
 Coeff-Com:  0.162D-02 0.303D-02 0.170D+00-0.586D-01 0.442D+00 0.443D+00
 Coeff-En:   0.000D+00 0.000D+00 0.000D+00 0.000D+00 0.000D+00 0.100D+01
 Coeff:      0.161D-02 0.302D-02 0.169D+00-0.584D-01 0.440D+00 0.445D+00
 Gap=     0.165 Goal=   None    Shift=    0.000
 RMSDP=1.96D-05 MaxDP=2.00D-03 DE=-3.69D-02 OVMax= 5.85D-03

 Cycle   7  Pass 1  IDiag  1:
 RMSU=  8.41D-06    CP:  1.01D+00  7.12D-01  5.37D-01  2.47D-01  7.89D-01
                    CP:  5.88D-01
 E= -1071.85783351004     Delta-E=       -0.000230577445 Rises=F Damp=F
 DIIS: error= 9.71D-05 at cycle   7 NSaved=   7.
 NSaved= 7 IEnMin= 7 EnMin= -1071.85783351004     IErMin= 7 ErrMin= 9.71D-05
 ErrMax= 9.71D-05  0.00D+00 EMaxC= 1.00D-01 BMatC= 2.28D-05 BMatP= 2.72D-04
 IDIUse=1 WtCom= 1.00D+00 WtEn= 0.00D+00
 Coeff-Com:  0.706D-03-0.141D-03 0.443D-01-0.182D-01 0.115D+00 0.177D+00
 Coeff-Com:  0.682D+00
 Coeff:      0.706D-03-0.141D-03 0.443D-01-0.182D-01 0.115D+00 0.177D+00
 Coeff:      0.682D+00
 Gap=     0.165 Goal=   None    Shift=    0.000
 RMSDP=5.30D-06 MaxDP=5.03D-04 DE=-2.31D-04 OVMax= 1.89D-03

 Cycle   8  Pass 1  IDiag  1:
 RMSU=  3.10D-06    CP:  1.01D+00  7.11D-01  5.40D-01  2.47D-01  7.74D-01
                    CP:  6.57D-01  8.12D-01
 E= -1071.85785093011     Delta-E=       -0.000017420074 Rises=F Damp=F
 DIIS: error= 7.04D-05 at cycle   8 NSaved=   8.
 NSaved= 8 IEnMin= 8 EnMin= -1071.85785093011     IErMin= 8 ErrMin= 7.04D-05
 ErrMax= 7.04D-05  0.00D+00 EMaxC= 1.00D-01 BMatC= 4.73D-06 BMatP= 2.28D-05
 IDIUse=1 WtCom= 1.00D+00 WtEn= 0.00D+00
 Coeff-Com:  0.440D-03-0.116D-02 0.788D-02-0.300D-02 0.136D-01 0.486D-01
 Coeff-Com:  0.432D+00 0.502D+00
 Coeff:      0.440D-03-0.116D-02 0.788D-02-0.300D-02 0.136D-01 0.486D-01
 Coeff:      0.432D+00 0.502D+00
 Gap=     0.165 Goal=   None    Shift=    0.000
 RMSDP=2.51D-06 MaxDP=4.10D-04 DE=-1.74D-05 OVMax= 5.50D-04

 Cycle   9  Pass 1  IDiag  1:
 RMSU=  9.70D-07    CP:  1.01D+00  7.10D-01  5.41D-01  2.46D-01  7.77D-01
                    CP:  6.31D-01  9.00D-01  5.54D-01
 E= -1071.85785516012     Delta-E=       -0.000004230003 Rises=F Damp=F
 DIIS: error= 2.06D-05 at cycle   9 NSaved=   9.
 NSaved= 9 IEnMin= 9 EnMin= -1071.85785516012     IErMin= 9 ErrMin= 2.06D-05
 ErrMax= 2.06D-05  0.00D+00 EMaxC= 1.00D-01 BMatC= 2.74D-07 BMatP= 4.73D-06
 IDIUse=1 WtCom= 1.00D+00 WtEn= 0.00D+00
 Coeff-Com:  0.230D-03-0.720D-03 0.211D-02-0.642D-03 0.137D-02 0.172D-01
 Coeff-Com:  0.201D+00 0.292D+00 0.488D+00
 Coeff:      0.230D-03-0.720D-03 0.211D-02-0.642D-03 0.137D-02 0.172D-01
 Coeff:      0.201D+00 0.292D+00 0.488D+00
 Gap=     0.165 Goal=   None    Shift=    0.000
 RMSDP=5.09D-07 MaxDP=3.73D-05 DE=-4.23D-06 OVMax= 1.42D-04

 Cycle  10  Pass 1  IDiag  1:
 RMSU=  3.44D-07    CP:  1.01D+00  7.11D-01  5.41D-01  2.46D-01  7.77D-01
                    CP:  6.34D-01  8.98D-01  5.98D-01  6.84D-01
 E= -1071.85785542096     Delta-E=       -0.000000260844 Rises=F Damp=F
 DIIS: error= 3.11D-06 at cycle  10 NSaved=  10.
 NSaved=10 IEnMin=10 EnMin= -1071.85785542096     IErMin=10 ErrMin= 3.11D-06
 ErrMax= 3.11D-06  0.00D+00 EMaxC= 1.00D-01 BMatC= 2.34D-08 BMatP= 2.74D-07
 IDIUse=1 WtCom= 1.00D+00 WtEn= 0.00D+00
 Coeff-Com:  0.466D-04-0.154D-03-0.152D-03 0.726D-04-0.128D-02 0.231D-02
 Coeff-Com:  0.405D-01 0.784D-01 0.257D+00 0.623D+00
 Coeff:      0.466D-04-0.154D-03-0.152D-03 0.726D-04-0.128D-02 0.231D-02
 Coeff:      0.405D-01 0.784D-01 0.257D+00 0.623D+00
 Gap=     0.165 Goal=   None    Shift=    0.000
 RMSDP=2.29D-07 MaxDP=4.95D-05 DE=-2.61D-07 OVMax= 3.02D-05

 Cycle  11  Pass 1  IDiag  1:
 RMSU=  1.09D-07    CP:  1.01D+00  7.11D-01  5.41D-01  2.46D-01  7.77D-01
                    CP:  6.36D-01  8.99D-01  6.06D-01  7.27D-01  6.51D-01
 E= -1071.85785544082     Delta-E=       -0.000000019856 Rises=F Damp=F
 DIIS: error= 1.14D-06 at cycle  11 NSaved=  11.
 NSaved=11 IEnMin=11 EnMin= -1071.85785544082     IErMin=11 ErrMin= 1.14D-06
 ErrMax= 1.14D-06  0.00D+00 EMaxC= 1.00D-01 BMatC= 2.46D-09 BMatP= 2.34D-08
 IDIUse=1 WtCom= 1.00D+00 WtEn= 0.00D+00
 Coeff-Com:  0.600D-05-0.280D-04-0.346D-03 0.125D-03-0.103D-02-0.998D-05
 Coeff-Com:  0.720D-02 0.215D-01 0.101D+00 0.323D+00 0.549D+00
 Coeff:      0.600D-05-0.280D-04-0.346D-03 0.125D-03-0.103D-02-0.998D-05
 Coeff:      0.720D-02 0.215D-01 0.101D+00 0.323D+00 0.549D+00
 Gap=     0.165 Goal=   None    Shift=    0.000
 RMSDP=5.92D-08 MaxDP=5.01D-06 DE=-1.99D-08 OVMax= 1.15D-05

 Cycle  12  Pass 1  IDiag  1:
 RMSU=  3.09D-08    CP:  1.01D+00  7.11D-01  5.41D-01  2.46D-01  7.77D-01
                    CP:  6.36D-01  8.99D-01  6.06D-01  7.33D-01  7.12D-01
                    CP:  7.65D-01
 E= -1071.85785544276     Delta-E=       -0.000000001946 Rises=F Damp=F
 DIIS: error= 6.59D-07 at cycle  12 NSaved=  12.
 NSaved=12 IEnMin=12 EnMin= -1071.85785544276     IErMin=12 ErrMin= 6.59D-07
 ErrMax= 6.59D-07  0.00D+00 EMaxC= 1.00D-01 BMatC= 3.25D-10 BMatP= 2.46D-09
 IDIUse=1 WtCom= 1.00D+00 WtEn= 0.00D+00
 Coeff-Com: -0.569D-05 0.105D-04-0.158D-03 0.511D-04-0.308D-03-0.137D-03
 Coeff-Com: -0.202D-02-0.412D-03 0.123D-01 0.681D-01 0.248D+00 0.675D+00
 Coeff:     -0.569D-05 0.105D-04-0.158D-03 0.511D-04-0.308D-03-0.137D-03
 Coeff:     -0.202D-02-0.412D-03 0.123D-01 0.681D-01 0.248D+00 0.675D+00
 Gap=     0.165 Goal=   None    Shift=    0.000
 RMSDP=3.32D-08 MaxDP=7.59D-06 DE=-1.95D-09 OVMax= 3.09D-06

 Cycle  13  Pass 1  IDiag  1:
 RMSU=  9.04D-09    CP:  1.01D+00  7.11D-01  5.41D-01  2.46D-01  7.77D-01
                    CP:  6.36D-01  9.00D-01  6.07D-01  7.36D-01  7.17D-01
                    CP:  8.35D-01  8.32D-01
 E= -1071.85785544297     Delta-E=       -0.000000000206 Rises=F Damp=F
 DIIS: error= 1.09D-07 at cycle  13 NSaved=  13.
 NSaved=13 IEnMin=13 EnMin= -1071.85785544297     IErMin=13 ErrMin= 1.09D-07
 ErrMax= 1.09D-07  0.00D+00 EMaxC= 1.00D-01 BMatC= 3.07D-11 BMatP= 3.25D-10
 IDIUse=1 WtCom= 1.00D+00 WtEn= 0.00D+00
 Coeff-Com: -0.344D-05 0.647D-05-0.385D-04 0.120D-04-0.327D-04 0.416D-05
 Coeff-Com: -0.152D-02-0.219D-02-0.404D-02 0.154D-02 0.673D-01 0.329D+00
 Coeff-Com:  0.610D+00
 Coeff:     -0.344D-05 0.647D-05-0.385D-04 0.120D-04-0.327D-04 0.416D-05
 Coeff:     -0.152D-02-0.219D-02-0.404D-02 0.154D-02 0.673D-01 0.329D+00
 Coeff:      0.610D+00
 Gap=     0.165 Goal=   None    Shift=    0.000
 RMSDP=1.17D-08 MaxDP=2.80D-06 DE=-2.06D-10 OVMax= 1.39D-06

 Cycle  14  Pass 1  IDiag  1:
 RMSU=  3.78D-09    CP:  1.01D+00  7.11D-01  5.41D-01  2.46D-01  7.77D-01
                    CP:  6.36D-01  8.99D-01  6.07D-01  7.36D-01  7.17D-01
                    CP:  8.49D-01  9.13D-01  8.00D-01
 E= -1071.85785544299     Delta-E=       -0.000000000020 Rises=F Damp=F
 DIIS: error= 3.27D-08 at cycle  14 NSaved=  14.
 NSaved=14 IEnMin=14 EnMin= -1071.85785544299     IErMin=14 ErrMin= 3.27D-08
 ErrMax= 3.27D-08  0.00D+00 EMaxC= 1.00D-01 BMatC= 2.61D-12 BMatP= 3.07D-11
 IDIUse=1 WtCom= 1.00D+00 WtEn= 0.00D+00
 Coeff-Com: -0.108D-05 0.223D-05-0.102D-05-0.232D-06 0.178D-04 0.193D-04
 Coeff-Com: -0.439D-03-0.976D-03-0.339D-02-0.789D-02-0.463D-03 0.667D-01
 Coeff-Com:  0.315D+00 0.631D+00
 Coeff:     -0.108D-05 0.223D-05-0.102D-05-0.232D-06 0.178D-04 0.193D-04
 Coeff:     -0.439D-03-0.976D-03-0.339D-02-0.789D-02-0.463D-03 0.667D-01
 Coeff:      0.315D+00 0.631D+00
 Gap=     0.165 Goal=   None    Shift=    0.000
 RMSDP=2.96D-09 MaxDP=5.96D-07 DE=-2.00D-11 OVMax= 6.28D-07

 Error on total polarization charges =  0.01490
 SCF Done:  E(RB3LYP) =  -1071.85785544     A.U. after   14 cycles
            NFock= 14  Conv=0.30D-08     -V/T= 2.0074
 KE= 1.064025422215D+03 PE=-6.367718465962D+03 EE= 2.296609199168D+03
 Leave Link  502 at Mon Jan  4 00:21:53 2021, MaxMem=    33554432 cpu:     26263.6
 (Enter /opt/QChem/g09/l801.exe)
 DoSCS=F DFT=T ScalE2(SS,OS)=  1.000000  1.000000
 ExpMin= 1.03D-01 ExpMax= 1.53D+04 ExpMxC= 5.22D+02 IAcc=3 IRadAn=         5 AccDes= 0.00D+00
 HarFok:  IExCor=  205 AccDes= 0.00D+00 IRadAn=         5 IDoV=-2 UseB2=F ITyADJ=14
 ICtDFT= 12500011 ScaDFX=  1.000000  1.000000  1.000000  1.000000
 DSYEVD-2 returned Info=          61 IAlg= 4 N=    30 NDim=    30 NE2=     1039475 trying  DSYEV.
 DSYEVD-2 returned Info=          61 IAlg= 4 N=    30 NDim=    30 NE2=     1039475 trying  DSYEV.
 Largest valence mixing into a core orbital is  6.93D-05
 Largest core mixing into a valence orbital is  1.85D-05
 Range of M.O.s used for correlation:    25   916
 NBasis=   916 NAE=    83 NBE=    83 NFC=    24 NFV=     0
 NROrb=    892 NOA=    59 NOB=    59 NVA=   833 NVB=   833

 **** Warning!!: The largest alpha MO coefficient is  0.30323579D+02

 Leave Link  801 at Mon Jan  4 00:21:57 2021, MaxMem=    33554432 cpu:         3.0
 (Enter /opt/QChem/g09/l914.exe)
 RHF ground state
 MDV=    33554432 DFT=T DoStab=F Mixed=T DoRPA=T DoScal=F NonHer=T
 Would need an additional        265130000000 words for in-memory AO integral storage.
 NEqPCM:  Using non-equilibrium solvation (IEInf=1, Eps=  78.3553, EpsInf=   1.7778)
 Inv3:  Mode=2 IEnd=    17310728.
 Iteration    1 A*A^-1 deviation from unit magnitude is 4.88D-15 for   2923.
 Iteration    1 A*A^-1 deviation from orthogonality  is 3.70D-15 for   2937   2306.
 Iteration    1 A^-1*A deviation from unit magnitude is 4.88D-15 for   2923.
 Iteration    1 A^-1*A deviation from orthogonality  is 2.20D-15 for   2928   2319.
 Making orbital integer symmetry assigments:
 Orbital symmetries:
       Occupied  (A) (A) (A) (A) (A) (A) (A) (A) (A) (A) (A) (A)
                 (A) (A) (A) (A) (A) (A) (A) (A) (A) (A) (A) (A)
                 (A) (A) (A) (A) (A) (A) (A) (A) (A) (A) (A) (A)
                 (A) (A) (A) (A) (A) (A) (A) (A) (A) (A) (A) (A)
                 (A) (A) (A) (A) (A) (A) (A) (A) (A) (A) (A) (A)
                 (A) (A) (A) (A) (A) (A) (A) (A) (A) (A) (A) (A)
                 (A) (A) (A) (A) (A) (A) (A) (A) (A) (A) (A)
       Virtual   (A) (A) (A) (A) (A) (A) (A) (A) (A) (A) (A) (A)
                 (A) (A) (A) (A) (A) (A) (A) (A) (A) (A) (A) (A)
                 (A) (A) (A) (A) (A) (A) (A) (A) (A) (A) (A) (A)
                 (A) (A) (A) (A) (A) (A) (A) (A) (A) (A) (A) (A)
                 (A) (A) (A) (A) (A) (A) (A) (A) (A) (A) (A) (A)
                 (A) (A) (A) (A) (A) (A) (A) (A) (A) (A) (A) (A)
                 (A) (A) (A) (A) (A) (A) (A) (A) (A) (A) (A) (A)
                 (A) (A) (A) (A) (A) (A) (A) (A) (A) (A) (A) (A)
                 (A) (A) (A) (A) (A) (A) (A) (A) (A) (A) (A) (A)
                 (A) (A) (A) (A) (A) (A) (A) (A) (A) (A) (A) (A)
                 (A) (A) (A) (A) (A) (A) (A) (A) (A) (A) (A) (A)
                 (A) (A) (A) (A) (A) (A) (A) (A) (A) (A) (A) (A)
                 (A) (A) (A) (A) (A) (A) (A) (A) (A) (A) (A) (A)
                 (A) (A) (A) (A) (A) (A) (A) (A) (A) (A) (A) (A)
                 (A) (A) (A) (A) (A) (A) (A) (A) (A) (A) (A) (A)
                 (A) (A) (A) (A) (A) (A) (A) (A) (A) (A) (A) (A)
                 (A) (A) (A) (A) (A) (A) (A) (A) (A) (A) (A) (A)
                 (A) (A) (A) (A) (A) (A) (A) (A) (A) (A) (A) (A)
                 (A) (A) (A) (A) (A) (A) (A) (A) (A) (A) (A) (A)
                 (A) (A) (A) (A) (A) (A) (A) (A) (A) (A) (A) (A)
                 (A) (A) (A) (A) (A) (A) (A) (A) (A) (A) (A) (A)
                 (A) (A) (A) (A) (A) (A) (A) (A) (A) (A) (A) (A)
                 (A) (A) (A) (A) (A) (A) (A) (A) (A) (A) (A) (A)
                 (A) (A) (A) (A) (A) (A) (A) (A) (A) (A) (A) (A)
                 (A) (A) (A) (A) (A) (A) (A) (A) (A) (A) (A) (A)
                 (A) (A) (A) (A) (A) (A) (A) (A) (A) (A) (A) (A)
                 (A) (A) (A) (A) (A) (A) (A) (A) (A) (A) (A) (A)
                 (A) (A) (A) (A) (A) (A) (A) (A) (A) (A) (A) (A)
                 (A) (A) (A) (A) (A) (A) (A) (A) (A) (A) (A) (A)
                 (A) (A) (A) (A) (A) (A) (A) (A) (A) (A) (A) (A)
                 (A) (A) (A) (A) (A) (A) (A) (A) (A) (A) (A) (A)
                 (A) (A) (A) (A) (A) (A) (A) (A) (A) (A) (A) (A)
                 (A) (A) (A) (A) (A) (A) (A) (A) (A) (A) (A) (A)
                 (A) (A) (A) (A) (A) (A) (A) (A) (A) (A) (A) (A)
                 (A) (A) (A) (A) (A) (A) (A) (A) (A) (A) (A) (A)
                 (A) (A) (A) (A) (A) (A) (A) (A) (A) (A) (A) (A)
                 (A) (A) (A) (A) (A) (A) (A) (A) (A) (A) (A) (A)
                 (A) (A) (A) (A) (A) (A) (A) (A) (A) (A) (A) (A)
                 (A) (A) (A) (A) (A) (A) (A) (A) (A) (A) (A) (A)
                 (A) (A) (A) (A) (A) (A) (A) (A) (A) (A) (A) (A)
                 (A) (A) (A) (A) (A) (A) (A) (A) (A) (A) (A) (A)
                 (A) (A) (A) (A) (A) (A) (A) (A) (A) (A) (A) (A)
                 (A) (A) (A) (A) (A) (A) (A) (A) (A) (A) (A) (A)
                 (A) (A) (A) (A) (A) (A) (A) (A) (A) (A) (A) (A)
                 (A) (A) (A) (A) (A) (A) (A) (A) (A) (A) (A) (A)
                 (A) (A) (A) (A) (A) (A) (A) (A) (A) (A) (A) (A)
                 (A) (A) (A) (A) (A) (A) (A) (A) (A) (A) (A) (A)
                 (A) (A) (A) (A) (A) (A) (A) (A) (A) (A) (A) (A)
                 (A) (A) (A) (A) (A) (A) (A) (A) (A) (A) (A) (A)
                 (A) (A) (A) (A) (A) (A) (A) (A) (A) (A) (A) (A)
                 (A) (A) (A) (A) (A) (A) (A) (A) (A) (A) (A) (A)
                 (A) (A) (A) (A) (A) (A) (A) (A) (A) (A) (A) (A)
                 (A) (A) (A) (A) (A) (A) (A) (A) (A) (A) (A) (A)
                 (A) (A) (A) (A) (A) (A) (A) (A) (A) (A) (A) (A)
                 (A) (A) (A) (A) (A) (A) (A) (A) (A) (A) (A) (A)
                 (A) (A) (A) (A) (A) (A) (A) (A) (A) (A) (A) (A)
                 (A) (A) (A) (A) (A) (A) (A) (A) (A) (A) (A) (A)
                 (A) (A) (A) (A) (A) (A) (A) (A) (A) (A) (A) (A)
                 (A) (A) (A) (A) (A) (A) (A) (A) (A) (A) (A) (A)
                 (A) (A) (A) (A) (A) (A) (A) (A) (A) (A) (A) (A)
                 (A) (A) (A) (A) (A) (A) (A) (A) (A) (A) (A) (A)
                 (A) (A) (A) (A) (A) (A) (A) (A) (A) (A) (A) (A)
                 (A) (A) (A) (A) (A) (A) (A) (A) (A) (A) (A) (A)
                 (A) (A) (A) (A) (A) (A) (A) (A) (A) (A) (A) (A)
                 (A) (A) (A) (A) (A) (A) (A) (A) (A) (A) (A) (A)
                 (A) (A) (A) (A) (A) (A) (A) (A) (A) (A) (A) (A)
                 (A) (A) (A) (A) (A) (A) (A) (A) (A) (A) (A) (A)
                 (A) (A) (A) (A) (A) (A) (A) (A) (A) (A) (A) (A)
                 (A) (A) (A) (A) (A) (A) (A) (A) (A) (A) (A) (A)
                 (A) (A) (A) (A) (A)
    40 initial guesses have been made.
 Convergence on wavefunction:    0.001000000000000
 Davidson Disk Diagonalization:  ConvIn= 1.00D-03 SkipCon=T Conv= 1.00D-03.
 Max sub-space:   200 roots to seek:    40 dimension of matrix:        98294
 Iteration     1 Dimension    40 NMult     0 NNew     40
 CISAX will form     1 AO SS matrices at one time.
 NMat=     1 NSing=     1 JSym2X= 0.
 FoFJK:  IHMeth= 1 ICntrl=       0 DoSepK=F KAlg= 0 I1Cent=   0 FoldK=F
 IRaf=         0 NMat=   2 IRICut=       1 DoRegI=T DoRafI=F ISym2E= 0.
 NMat=     1 NSing=     1 JSym2X= 0.
 NMat=     1 NSing=     1 JSym2X= 0.
54023775747
 Root     29 :     6.207625338335872
 Root     30 :     6.267358316018693
 Root     31 :     6.301148267683915
 Root     32 :     6.370785461818007
 Root     33 :     6.480821015968099
 Root     34 :     6.567077482751201
 Root     35 :     6.809895894725500
 Root     36 :     6.940742408301766
 Root     37 :     7.012617012813797
 Root     38 :     7.179022234694936
 Root     39 :     7.366784906453901
 Root     40 :     8.161508386158731
 Iteration     2 Dimension    60 NMult    40 NNew     20
 CISAX will form    10 AO SS matrices at one time.
 NMat=    10 NSing=    10 JSym2X= 0.
 NMat=    10 NSing=    10 JSym2X= 0.
 Root      1 not converged, maximum delta is    0.030202726638532
 Root      2 not converged, maximum delta is    0.032417227076944
 Root      3 not converged, maximum delta is    0.171781662245901
 Root      4 not converged, maximum delta is    0.198997051101007
 Root      5 not converged, maximum delta is    0.228613305654903
 Root      6 not converged, maximum delta is    0.430908482792676
 Root      7 not converged, maximum delta is    0.323243802621888
 New state      8 was old state      9
 Root      8 not converged, maximum delta is    0.357374680831789
 New state      9 was old state      8
 Root      9 not converged, maximum delta is    0.306562454490014
 Root     10 not converged, maximum delta is    0.178588985102323
 Excitation Energies [eV] at current iteration:
 Root      1 :     3.853566110971511   Change is   -0.025424137176251
 Root      2 :     4.025947825083500   Change is   -0.032593898443955
 Root      3 :     4.699722493928286   Change is   -0.020930490800267
 Root      4 :     4.755865816935683   Change is   -0.050248508273731
 Root      5 :     4.803119201294330   Change is   -0.037062033983525
 Root      6 :     4.815445037289916   Change is   -0.119597221554437
 Root      7 :     4.841605144705516   Change is   -0.132571486910519
 Root      8 :     4.893655706868729   Change is   -0.155258849846734
 Root      9 :     4.920274649368259   Change is   -0.077737393186546
 Root     10 :     4.986678365606561   Change is   -0.099076982952850
 Iteration     3 Dimension    80 NMult    60 NNew     20
 CISAX will form    10 AO SS matrices at one time.
 NMat=    10 NSing=    10 JSym2X= 0.
 NMat=    10 NSing=    10 JSym2X= 0.
 Root      1 not converged, maximum delta is    0.002689176564541
 Root      2 not converged, maximum delta is    0.003864449391488
 Root      3 not converged, maximum delta is    0.027609969720360
 Root      4 not converged, maximum delta is    0.043729572051223
 Root      5 not converged, maximum delta is    0.128872546286294
 Root      6 not converged, maximum delta is    0.145120421326702
 Root      7 not converged, maximum delta is    0.142902424755883
 Root      8 not converged, maximum delta is    0.078619572992265
 Root      9 not converged, maximum delta is    0.079390177239178
 Root     10 not converged, maximum delta is    0.071687369516693
 Excitation Energies [eV] at current iteration:
 Root      1 :     3.852218758699834   Change is   -0.001347352271677
 Root      2 :     4.024101934347923   Change is   -0.001845890735577
 Root      3 :     4.693938669517716   Change is   -0.005783824410570
 Root      4 :     4.751159011106742   Change is   -0.004706805828941
 Root      5 :     4.793392737055688   Change is   -0.009726464238642
 Root      6 :     4.801463579098924   Change is   -0.013981458190992
 Root      7 :     4.830611516149037   Change is   -0.010993628556479
 Root      8 :     4.887066099325766   Change is   -0.006589607542962
 Root      9 :     4.909440824457855   Change is   -0.010833824910404
 Root     10 :     4.969327061783374   Change is   -0.017351303823188
 Iteration     4 Dimension   100 NMult    80 NNew     20
 CISAX will form    10 AO SS matrices at one time.
 NMat=    10 NSing=    10 JSym2X= 0.
 NMat=    10 NSing=    10 JSym2X= 0.
 Root      1 has converged.
 Root      2 not converged, maximum delta is    0.001055717293294
 Root      3 not converged, maximum delta is    0.003217487167798
 Root      4 not converged, maximum delta is    0.005408540432580
 Root      5 not converged, maximum delta is    0.008944840599516
 Root      6 not converged, maximum delta is    0.009477028695999
 Root      7 not converged, maximum delta is    0.014550014596841
 Root      8 not converged, maximum delta is    0.009942827675343
 Root      9 not converged, maximum delta is    0.010854785415871
 Root     10 not converged, maximum delta is    0.015030307809277
 Excitation Energies [eV] at current iteration:
 Root      1 :     3.852093125088069   Change is   -0.000125633611765
 Root      2 :     4.023867408706725   Change is   -0.000234525641197
 Root      3 :     4.693327330150916   Change is   -0.000611339366800
 Root      4 :     4.750564556283488   Change is   -0.000594454823253
 Root      5 :     4.792359684169198   Change is   -0.001033052886490
 Root      6 :     4.800304792261946   Change is   -0.001158786836978
 Root      7 :     4.829207428311994   Change is   -0.001404087837043
 Root      8 :     4.886422840405922   Change is   -0.000643258919844
 Root      9 :     4.908094829893132   Change is   -0.001345994564722
 Root     10 :     4.967458507383149   Change is   -0.001868554400225
 Iteration     5 Dimension   118 NMult   100 NNew     18
 CISAX will form     9 AO SS matrices at one time.
 NMat=     9 NSing=     9 JSym2X= 0.
 NMat=     9 NSing=     9 JSym2X= 0.
 Root      1 has converged.
 Root      2 has converged.
 Root      3 has converged.
 Root      4 has converged.
 Root      5 has converged.
 Root      6 has converged.
 Root      7 not converged, maximum delta is    0.001164329476236
 Root      8 not converged, maximum delta is    0.001176895455030
 Root      9 not converged, maximum delta is    0.002417090093931
 Root     10 not converged, maximum delta is    0.002371140142748
 Excitation Energies [eV] at current iteration:
 Root      1 :     3.852090378973662   Change is   -0.000002746114407
 Root      2 :     4.023849788257690   Change is   -0.000017620449035
 Root      3 :     4.693274467528161   Change is   -0.000052862622756
 Root      4 :     4.750509737398258   Change is   -0.000054818885230
 Root      5 :     4.792255750223180   Change is   -0.000103933946019
 Root      6 :     4.800191993963325   Change is   -0.000112798298621
 Root      7 :     4.829081843627542   Change is   -0.000125584684452
 Root      8 :     4.886353065102538   Change is   -0.000069775303383
 Root      9 :     4.907925216499770   Change is   -0.000169613393363
 Root     10 :     4.967313493166936   Change is   -0.000145014216211
 Iteration     6 Dimension   126 NMult   118 NNew      8
 CISAX will form     8 AO SS matrices at one time.
 NMat=     8 NSing=     8 JSym2X= 0.
 Root      1 has converged.
 Root      2 has converged.
 Root      3 has converged.
 Root      4 has converged.
 Root      5 has converged.
 Root      6 has converged.
 Root      7 has converged.
 Root      8 has converged.
 Root      9 has converged.
 Root     10 has converged.
 Excitation Energies [eV] at current iteration:
 Root      1 :     3.852089879727234   Change is   -0.000000499246428
 Root      2 :     4.023849571475276   Change is   -0.000000216782414
 Root      3 :     4.693272333870983   Change is   -0.000002133657177
 Root      4 :     4.750508740571743   Change is   -0.000000996826516
 Root      5 :     4.792250884681757   Change is   -0.000004865541421
 Root      6 :     4.800187116884552   Change is   -0.000004877078773
 Root      7 :     4.829069658405857   Change is   -0.000012185221686
 Root      8 :     4.886346251860040   Change is   -0.000006813242498
 Root      9 :     4.907907805712227   Change is   -0.000017410787543
 Root     10 :     4.967296711673621   Change is   -0.000016781493316
 Convergence achieved on expansion vectors.
 ***********************************************************************
 Excited states from <AA,BB:AA,BB> singles matrix:
 ***********************************************************************
 
 1PDM for each excited state written to RWF  633
 Ground to excited state transition densities written to RWF  633
 Ground to excited state transition electric dipole moments (Au):
       state          X           Y           Z        Dip. S.      Osc.
         1         0.1625      0.3531      0.0950      0.1601      0.0151
         2        -0.2638     -0.1094      0.0092      0.0817      0.0081
         3        -0.1670     -0.0314     -0.1620      0.0551      0.0063
         4         0.3260      0.4484     -0.0878      0.3151      0.0367
         5         0.2457      0.4164     -0.0950      0.2428      0.0285
         6        -0.1704      0.6124      0.2473      0.4652      0.0547
         7         0.1386     -0.0547     -0.2486      0.0840      0.0099
         8         0.0532     -0.0933     -0.2579      0.0781      0.0093
         9        -0.4229     -0.2026     -0.0301      0.2208      0.0266
        10         0.0843      0.4591     -0.0756      0.2236      0.0272
 Ground to excited state transition velocity dipole moments (Au):
       state          X           Y           Z        Dip. S.      Osc.
         1        -0.0232     -0.0499     -0.0134      0.0032      0.0151
         2         0.0391      0.0158     -0.0021      0.0018      0.0080
         3         0.0289      0.0065      0.0272      0.0016      0.0063
         4        -0.0566     -0.0766      0.0157      0.0093      0.0356
         5        -0.0421     -0.0726      0.0175      0.0073      0.0278
         6         0.0292     -0.1074     -0.0433      0.0143      0.0539
         7        -0.0259      0.0100      0.0446      0.0028      0.0104
         8        -0.0072      0.0172      0.0463      0.0025      0.0092
         9         0.0732      0.0341      0.0046      0.0065      0.0242
        10        -0.0142     -0.0848      0.0135      0.0076      0.0276
 Ground to excited state transition magnetic dipole moments (Au):
       state          X           Y           Z
         1        -0.2890      0.0417      0.0878
         2         0.4283      0.0614      0.1808
         3        -0.0256     -0.0178     -0.1245
         4         0.3862     -0.2146      0.0164
         5        -0.3392     -0.1613     -0.3238
         6        -0.3614     -0.0825      0.1517
         7        -0.0393      0.2497      0.2515
         8         0.0281     -0.0273     -0.6046
         9         0.0319     -0.0864      0.0685
        10         0.0805     -0.0502     -0.0974
 Ground to excited state transition velocity quadrupole moments (Au):
       state          XX          YY          ZZ          XY          XZ          YZ
         1         0.2725     -0.1823     -0.0374      0.1318     -0.0354     -0.0646
         2         0.0290      0.0657     -0.0700     -0.1305     -0.0205      0.0158
         3         0.0486     -0.1936      0.0143     -0.1759     -0.1272     -0.0501
         4         0.2165      0.1594     -0.1216      0.3904      0.1298      0.3327
         5         0.2380     -0.2910     -0.0290      0.0086     -0.0102     -0.2534
         6         0.2154     -0.6196      0.0202      0.0621      0.0814     -0.0489
         7         0.0544      0.0891     -0.0109     -0.2385     -0.0606     -0.1655
         8         0.0648      0.0444     -0.0073     -0.1163     -0.1180     -0.0853
         9        -0.5368      0.3482      0.0969     -0.4521      0.2064      0.0066
        10        -0.0629      0.1933     -0.0475     -0.1139      0.2600      0.0350
 <0|del|b> * <b|rxdel|0> + <0|del|b> * <b|delr+rdel|0>
 Rotatory Strengths (R) in cgs (10**-40 erg-esu-cm/Gauss)
       state          XX          YY          ZZ    R(velocity)    E-M Angle
         1       -16.9660     21.9571     12.2210      5.7374       78.49
         2         2.8409     39.9409     40.0696     27.6171       28.85
         3       -15.3216     -1.6066     -0.4701     -5.7995      145.32
         4        66.3648    -94.3000      7.0234     -6.9706       96.95
         5        10.9136     38.3557     32.2235     27.1643       61.48
         6        16.7189    -31.8005    -18.0561    -11.0459       99.95
         7         7.3237     54.1150     -2.7509     19.5626       38.17
         8       -62.6067    -43.6783     -6.5375    -37.6075      161.38
         9       -23.0151     10.2211     11.6546     -0.3798       91.79
        10        45.4030     -2.7517    -35.7099      2.3138       81.29
 1/2[<0|r|b>*<b|rxdel|0> + (<0|rxdel|b>*<b|r|0>)*]
 Rotatory Strengths (R) in cgs (10**-40 erg-esu-cm/Gauss)
       state          XX          YY          ZZ     R(length)
         1        33.2064    -10.4230     -5.9006      5.6276
         2        79.9089      4.7458     -1.1822     27.8242
         3        -3.0250     -0.3938    -14.2579     -5.8922
         4       -89.0437     68.0403      1.0192     -6.6614
         5        58.9393     47.4925    -21.7489     28.2277
         6       -43.5557     35.7130    -26.5274    -11.4567
         7         3.8474      9.6606     44.2108     19.2396
         8        -1.0581     -1.7983   -110.2910    -37.7158
         9         9.5509    -12.3789      1.4610     -0.4557
        10        -4.7996     16.2812     -5.2041      2.0925
  1/2[<0|del|b>*<b|r|0> + (<0|r|b>*<b|del|0>)*] (Au)
       state          X           Y           Z        Dip. S.   Osc.(frdel)
         1        -0.0038     -0.0176     -0.0013      0.0227      0.0151
         2        -0.0103     -0.0017      0.0000      0.0121      0.0080
         3        -0.0048     -0.0002     -0.0044      0.0094      0.0063
         4        -0.0185     -0.0344     -0.0014      0.0542      0.0361
         5        -0.0103     -0.0302     -0.0017      0.0422      0.0282
         6        -0.0050     -0.0658     -0.0107      0.0815      0.0543
         7        -0.0036     -0.0005     -0.0111      0.0152      0.0101
         8        -0.0004     -0.0016     -0.0119      0.0139      0.0093
         9        -0.0310     -0.0069     -0.0001      0.0380      0.0253
        10        -0.0012     -0.0389     -0.0010      0.0411      0.0274

 Excitation energies and oscillator strengths:
 
 Excited State   1:      Singlet-A      3.8521 eV  321.86 nm  f=0.0151  <S**2>=0.000
      83 -> 84         0.70378
 This state for optimization and/or second-order correction.
 Total Energy, E(TD-HF/TD-KS) =  -1071.40754439    
 Copying the excited state density for this state as the 1-particle RhoCI density.
 
 Excited State   2:      Singlet-A      4.0238 eV  308.12 nm  f=0.0081  <S**2>=0.000
      82 -> 84         0.70247
 
 Excited State   3:      Singlet-A      4.6933 eV  264.17 nm  f=0.0063  <S**2>=0.000
      81 -> 84         0.58120
      83 -> 85        -0.32041
      83 -> 86         0.16245
 
 Excited State   4:      Singlet-A      4.7505 eV  260.99 nm  f=0.0367  <S**2>=0.000
      79 -> 84        -0.14720
      81 -> 84         0.35827
      83 -> 85         0.57143
 
 Excited State   5:      Singlet-A      4.7923 eV  258.72 nm  f=0.0285  <S**2>=0.000
      77 -> 84        -0.17282
      78 -> 85         0.10167
      79 -> 84         0.29758
      80 -> 84        -0.31068
      81 -> 84        -0.11058
      82 -> 85         0.21785
      83 -> 85         0.19628
      83 -> 86         0.36656
 
 Excited State   6:      Singlet-A      4.8002 eV  258.29 nm  f=0.0547  <S**2>=0.000
      78 -> 85         0.21278
      79 -> 84         0.51570
      80 -> 84         0.33439
      83 -> 86        -0.17715
 
 Excited State   7:      Singlet-A      4.8291 eV  256.75 nm  f=0.0099  <S**2>=0.000
      77 -> 84         0.53027
      80 -> 84         0.19446
      82 -> 85         0.10623
      83 -> 86         0.34906
 
 Excited State   8:      Singlet-A      4.8863 eV  253.74 nm  f=0.0093  <S**2>=0.000
      77 -> 84        -0.38843
      79 -> 84        -0.11939
      80 -> 84         0.49556
      83 -> 86         0.24461
 
 Excited State   9:      Singlet-A      4.9079 eV  252.62 nm  f=0.0266  <S**2>=0.000
      79 -> 84        -0.11011
      82 -> 85         0.57331
      82 -> 86         0.23080
      83 -> 86        -0.23338
 
 Excited State  10:      Singlet-A      4.9673 eV  249.60 nm  f=0.0272  <S**2>=0.000
      80 -> 87        -0.13447
      81 -> 87        -0.14147
      82 -> 85        -0.29596
      82 -> 86         0.53037
      83 -> 87        -0.15443
      83 -> 88         0.13610
 SavETr:  write IOETrn=   770 NScale= 10 NData=  16 NLR=1 NState=   10 LETran=     190.
 Leave Link  914 at Mon Jan  4 01:05:15 2021, MaxMem=    33554432 cpu:     22154.5
 (Enter /opt/QChem/g09/l601.exe)
 Copying SCF densities to generalized density rwf, IOpCl= 0 IROHF=0.

 **********************************************************************

            Population analysis using the SCF density.

 **********************************************************************

 Orbital symmetries:
       Occupied  (A) (A) (A) (A) (A) (A) (A) (A) (A) (A) (A) (A)
                 (A) (A) (A) (A) (A) (A) (A) (A) (A) (A) (A) (A)
                 (A) (A) (A) (A) (A) (A) (A) (A) (A) (A) (A) (A)
                 (A) (A) (A) (A) (A) (A) (A) (A) (A) (A) (A) (A)
                 (A) (A) (A) (A) (A) (A) (A) (A) (A) (A) (A) (A)
                 (A) (A) (A) (A) (A) (A) (A) (A) (A) (A) (A) (A)
                 (A) (A) (A) (A) (A) (A) (A) (A) (A) (A) (A)
       Virtual   (A) (A) (A) (A) (A) (A) (A) (A) (A) (A) (A) (A)
                 (A) (A) (A) (A) (A) (A) (A) (A) (A) (A) (A) (A)
                 (A) (A) (A) (A) (A) (A) (A) (A) (A) (A) (A) (A)
                 (A) (A) (A) (A) (A) (A) (A) (A) (A) (A) (A) (A)
                 (A) (A) (A) (A) (A) (A) (A) (A) (A) (A) (A) (A)
                 (A) (A) (A) (A) (A) (A) (A) (A) (A) (A) (A) (A)
                 (A) (A) (A) (A) (A) (A) (A) (A) (A) (A) (A) (A)
                 (A) (A) (A) (A) (A) (A) (A) (A) (A) (A) (A) (A)
                 (A) (A) (A) (A) (A) (A) (A) (A) (A) (A) (A) (A)
                 (A) (A) (A) (A) (A) (A) (A) (A) (A) (A) (A) (A)
                 (A) (A) (A) (A) (A) (A) (A) (A) (A) (A) (A) (A)
                 (A) (A) (A) (A) (A) (A) (A) (A) (A) (A) (A) (A)
                 (A) (A) (A) (A) (A) (A) (A) (A) (A) (A) (A) (A)
                 (A) (A) (A) (A) (A) (A) (A) (A) (A) (A) (A) (A)
                 (A) (A) (A) (A) (A) (A) (A) (A) (A) (A) (A) (A)
                 (A) (A) (A) (A) (A) (A) (A) (A) (A) (A) (A) (A)
                 (A) (A) (A) (A) (A) (A) (A) (A) (A) (A) (A) (A)
                 (A) (A) (A) (A) (A) (A) (A) (A) (A) (A) (A) (A)
                 (A) (A) (A) (A) (A) (A) (A) (A) (A) (A) (A) (A)
                 (A) (A) (A) (A) (A) (A) (A) (A) (A) (A) (A) (A)
                 (A) (A) (A) (A) (A) (A) (A) (A) (A) (A) (A) (A)
                 (A) (A) (A) (A) (A) (A) (A) (A) (A) (A) (A) (A)
                 (A) (A) (A) (A) (A) (A) (A) (A) (A) (A) (A) (A)
                 (A) (A) (A) (A) (A) (A) (A) (A) (A) (A) (A) (A)
                 (A) (A) (A) (A) (A) (A) (A) (A) (A) (A) (A) (A)
                 (A) (A) (A) (A) (A) (A) (A) (A) (A) (A) (A) (A)
                 (A) (A) (A) (A) (A) (A) (A) (A) (A) (A) (A) (A)
                 (A) (A) (A) (A) (A) (A) (A) (A) (A) (A) (A) (A)
                 (A) (A) (A) (A) (A) (A) (A) (A) (A) (A) (A) (A)
                 (A) (A) (A) (A) (A) (A) (A) (A) (A) (A) (A) (A)
                 (A) (A) (A) (A) (A) (A) (A) (A) (A) (A) (A) (A)
                 (A) (A) (A) (A) (A) (A) (A) (A) (A) (A) (A) (A)
                 (A) (A) (A) (A) (A) (A) (A) (A) (A) (A) (A) (A)
                 (A) (A) (A) (A) (A) (A) (A) (A) (A) (A) (A) (A)
                 (A) (A) (A) (A) (A) (A) (A) (A) (A) (A) (A) (A)
                 (A) (A) (A) (A) (A) (A) (A) (A) (A) (A) (A) (A)
                 (A) (A) (A) (A) (A) (A) (A) (A) (A) (A) (A) (A)
                 (A) (A) (A) (A) (A) (A)
 The electronic state is 1-A.
 Alpha  occ. eigenvalues --  -19.20860 -19.19928 -19.19774 -19.16506 -10.34039
 Alpha  occ. eigenvalues --  -10.29396 -10.27107 -10.26884 -10.23170 -10.22456
 Alpha  occ. eigenvalues --  -10.22265 -10.22076 -10.21823 -10.21596 -10.21578
 Alpha  occ. eigenvalues --  -10.21524 -10.21067 -10.21051 -10.20960 -10.20866
 Alpha  occ. eigenvalues --  -10.20714 -10.20593 -10.20382 -10.20380  -1.10096
 Alpha  occ. eigenvalues --   -1.06599  -1.06405  -1.02977  -0.89017  -0.87628
 Alpha  occ. eigenvalues --   -0.86579  -0.81168  -0.78824  -0.77158  -0.76457
 Alpha  occ. eigenvalues --   -0.76303  -0.75372  -0.70292  -0.65861  -0.64303
 Alpha  occ. eigenvalues --   -0.63934  -0.62051  -0.61878  -0.60457  -0.57968
 Alpha  occ. eigenvalues --   -0.55793  -0.55653  -0.52910  -0.52270  -0.51522
 Alpha  occ. eigenvalues --   -0.48940  -0.48666  -0.47853  -0.46721  -0.46400
 Alpha  occ. eigenvalues --   -0.45852  -0.45176  -0.44874  -0.44358  -0.43725
 Alpha  occ. eigenvalues --   -0.43455  -0.42071  -0.41919  -0.41265  -0.40367
 Alpha  occ. eigenvalues --   -0.39418  -0.38727  -0.38621  -0.38014  -0.37818
 Alpha  occ. eigenvalues --   -0.36760  -0.35850  -0.35378  -0.34956  -0.34208
 Alpha  occ. eigenvalues --   -0.31835  -0.29996  -0.28186  -0.27769  -0.27304
 Alpha  occ. eigenvalues --   -0.26785  -0.24332  -0.23732
 Alpha virt. eigenvalues --   -0.07342  -0.04108  -0.03492  -0.02546  -0.01891
 Alpha virt. eigenvalues --   -0.01296  -0.00977  -0.00390  -0.00104   0.00876
 Alpha virt. eigenvalues --    0.01254   0.01661   0.02155   0.02277   0.02850
 Alpha virt. eigenvalues --    0.03345   0.03911   0.04037   0.04531   0.04912
 Alpha virt. eigenvalues --    0.05507   0.05776   0.06093   0.06799   0.07579
 Alpha virt. eigenvalues --    0.08120   0.08183   0.08492   0.08840   0.09231
 Alpha virt. eigenvalues --    0.09564   0.09643   0.09820   0.10250   0.10351
 Alpha virt. eigenvalues --    0.10945   0.11181   0.11635   0.11810   0.11956
 Alpha virt. eigenvalues --    0.12124   0.12446   0.12699   0.12893   0.12946
 Alpha virt. eigenvalues --    0.13129   0.13383   0.13437   0.13845   0.14051
 Alpha virt. eigenvalues --    0.14119   0.14349   0.14551   0.14782   0.15317
 Alpha virt. eigenvalues --    0.15501   0.15541   0.16229   0.16345   0.16661
 Alpha virt. eigenvalues --    0.16801   0.17303   0.17748   0.18117   0.18192
 Alpha virt. eigenvalues --    0.18646   0.18957   0.19071   0.19210   0.19336
 Alpha virt. eigenvalues --    0.19531   0.19990   0.20223   0.20452   0.21015
 Alpha virt. eigenvalues --    0.21310   0.22006   0.22317   0.22473   0.22797
 Alpha virt. eigenvalues --    0.23163   0.23536   0.23732   0.24008   0.24383
 Alpha virt. eigenvalues --    0.24921   0.25085   0.25124   0.25396   0.25922
 Alpha virt. eigenvalues --    0.26237   0.26634   0.26706   0.27015   0.27255
 Alpha virt. eigenvalues --    0.27952   0.28075   0.28605   0.28893   0.29275
 Alpha virt. eigenvalues --    0.29483   0.29689   0.29734   0.29965   0.30332
 Alpha virt. eigenvalues --    0.30766   0.31062   0.31213   0.31496   0.31607
 Alpha virt. eigenvalues --    0.31940   0.32339   0.32912   0.32992   0.33380
 Alpha virt. eigenvalues --    0.33793   0.34353   0.34849   0.35466   0.35652
 Alpha virt. eigenvalues --    0.35894   0.36211   0.36353   0.37355   0.37672
 Alpha virt. eigenvalues --    0.37774   0.37876   0.38683   0.38877   0.39756
 Alpha virt. eigenvalues --    0.39831   0.40151   0.40529   0.41116   0.41579
 Alpha virt. eigenvalues --    0.41722   0.42160   0.43036   0.43289   0.43625
 Alpha virt. eigenvalues --    0.44397   0.44710   0.45468   0.46052   0.47046
 Alpha virt. eigenvalues --    0.49057   0.50917   0.53895   0.57272   0.59232
 Alpha virt. eigenvalues --    0.59864   0.61245   0.61582   0.63303   0.66916
 Alpha virt. eigenvalues --    0.67523   0.68908   0.69559   0.69967   0.70946
 Alpha virt. eigenvalues --    0.71519   0.71722   0.72570   0.73225   0.73535
 Alpha virt. eigenvalues --    0.74100   0.74477   0.74985   0.75322   0.76011
 Alpha virt. eigenvalues --    0.76358   0.77228   0.77433   0.78041   0.78667
 Alpha virt. eigenvalues --    0.79107   0.79348   0.80347   0.81648   0.82869
 Alpha virt. eigenvalues --    0.83021   0.83893   0.85145   0.85828   0.86511
 Alpha virt. eigenvalues --    0.87256   0.87699   0.89485   0.89948   0.91031
 Alpha virt. eigenvalues --    0.91514   0.92164   0.93318   0.94190   0.94874
 Alpha virt. eigenvalues --    0.95930   0.97093   0.99117   0.99378   0.99933
 Alpha virt. eigenvalues --    1.00414   1.01960   1.02295   1.02948   1.03474
 Alpha virt. eigenvalues --    1.04078   1.05056   1.06243   1.06525   1.06921
 Alpha virt. eigenvalues --    1.08617   1.09077   1.10258   1.11305   1.12832
 Alpha virt. eigenvalues --    1.13618   1.13848   1.14631   1.15517   1.16580
 Alpha virt. eigenvalues --    1.16984   1.17908   1.18941   1.19195   1.19342
 Alpha virt. eigenvalues --    1.19829   1.20694   1.20754   1.22789   1.23200
 Alpha virt. eigenvalues --    1.23804   1.24898   1.25232   1.25641   1.26764
 Alpha virt. eigenvalues --    1.27152   1.27808   1.28845   1.29323   1.30370
 Alpha virt. eigenvalues --    1.30944   1.33191   1.33900   1.34226   1.34848
 Alpha virt. eigenvalues --    1.35217   1.36756   1.37165   1.37373   1.37803
 Alpha virt. eigenvalues --    1.38363   1.39241   1.39589   1.39710   1.40251
 Alpha virt. eigenvalues --    1.40505   1.41374   1.42482   1.42845   1.43050
 Alpha virt. eigenvalues --    1.43733   1.44060   1.46453   1.47187   1.47532
 Alpha virt. eigenvalues --    1.47892   1.51654   1.52493   1.54375   1.55773
 Alpha virt. eigenvalues --    1.56742   1.59284   1.59447   1.62811   1.64220
 Alpha virt. eigenvalues --    1.67574   1.69842   1.71334   1.72423   1.73596
 Alpha virt. eigenvalues --    1.74950   1.75695   1.77692   1.78524   1.79231
 Alpha virt. eigenvalues --    1.80354   1.80939   1.81303   1.83065   1.85188
 Alpha virt. eigenvalues --    1.86202   1.86575   1.88171   1.88649   1.88926
 Alpha virt. eigenvalues --    1.89469   1.90704   1.91080   1.91328   1.91812
 Alpha virt. eigenvalues --    1.92719   1.93227   1.93757   1.94813   1.95765
 Alpha virt. eigenvalues --    1.96479   1.96693   1.98166   1.98569   1.99010
 Alpha virt. eigenvalues --    1.99227   1.99724   2.00048   2.01221   2.01769
 Alpha virt. eigenvalues --    2.01979   2.03476   2.05868   2.07004   2.08303
 Alpha virt. eigenvalues --    2.09324   2.10494   2.12553   2.13769   2.16957
 Alpha virt. eigenvalues --    2.17381   2.18497   2.20879   2.22297   2.25925
 Alpha virt. eigenvalues --    2.26011   2.26236   2.27334   2.27818   2.28023
 Alpha virt. eigenvalues --    2.31040   2.31680   2.31940   2.33439   2.34291
 Alpha virt. eigenvalues --    2.35323   2.36998   2.38319   2.38650   2.40204
 Alpha virt. eigenvalues --    2.40839   2.41753   2.41957   2.42865   2.44662
 Alpha virt. eigenvalues --    2.45457   2.46275   2.46868   2.47940   2.48692
 Alpha virt. eigenvalues --    2.49319   2.50557   2.51303   2.51676   2.52301
 Alpha virt. eigenvalues --    2.53958   2.55367   2.55678   2.55967   2.56418
 Alpha virt. eigenvalues --    2.56812   2.56961   2.57950   2.59615   2.59746
 Alpha virt. eigenvalues --    2.60341   2.62289   2.62846   2.64774   2.65239
 Alpha virt. eigenvalues --    2.66308   2.67735   2.68338   2.68719   2.71557
 Alpha virt. eigenvalues --    2.72227   2.73409   2.74449   2.75122   2.77292
 Alpha virt. eigenvalues --    2.79873   2.80510   2.82002   2.82624   2.83830
 Alpha virt. eigenvalues --    2.85134   2.89189   2.90231   2.93856   2.96628
 Alpha virt. eigenvalues --    3.00225   3.00999   3.02401   3.04000   3.06749
 Alpha virt. eigenvalues --    3.07366   3.09177   3.10500   3.12992   3.15132
 Alpha virt. eigenvalues --    3.19617   3.20033   3.22445   3.28172   3.29781
 Alpha virt. eigenvalues --    3.31257   3.32256   3.33289   3.34988   3.36226
[...]
    25  C   -0.244711  -0.005405   0.022230   0.000074  -0.002880  -0.783796
    26  C   -0.118933   0.047067  -0.032655   0.000161   0.002903   2.400193
    27  H    0.001168  -0.014262   0.013348  -0.000539   0.000494  -0.190808
    28  C   -0.020425   0.018910   0.005826   0.000102  -0.001297  -0.356671
    29  H   -0.002265  -0.001601   0.000266  -0.000002   0.000052   0.015900
    30  H    0.004118  -0.000529  -0.001447   0.000003   0.000166   0.001329
    31  H   -0.001713  -0.000191   0.000215  -0.000002  -0.000015  -0.009916
    32  O    0.000001   0.000013  -0.000016   0.000006  -0.000001   0.040532
    33  H   -0.000127  -0.000014  -0.000008   0.000007   0.000000   0.004118
    34  O   -0.368704  -0.002857   0.248306  -0.018609  -0.027929   0.000778
    35  H    0.077414   0.000011   0.031846  -0.002666   0.001724  -0.001396
    36  O    0.052809   0.002311   0.003142   0.000035  -0.001012  -0.466211
    37  C    0.358887   0.004476  -0.014525  -0.000619   0.001890   0.426157
    38  O    0.002974  -0.001454   0.000694  -0.000018   0.000045   0.008617
              13         14         15         16         17         18
     1  C   -1.646250  -0.182624  -0.269123   0.112044   1.074754  -0.020714
     2  C   -1.427504   0.491864  -0.064065   0.039743   0.548509  -0.055106
     3  C    0.229512   0.130045   0.095675   0.001726   0.148037   0.013355
     4  C   -0.184616  -0.141616  -0.017779   0.013218  -0.076165  -0.018105
     5  C    0.267292  -0.187576   0.020003  -0.010636  -0.271674  -0.005942
     6  H   -0.029910   0.029311   0.005452  -0.003343  -0.026359  -0.004485
     7  C   -0.019200   0.101439   0.007043   0.003926   0.012048   0.001473
     8  H    0.014349  -0.059877   0.003171  -0.001352  -0.035115  -0.006376
     9  C   -0.017614   0.081582   0.000996   0.005147   0.033570  -0.023923
    10  H    0.000554  -0.005638  -0.000126  -0.000528  -0.002700   0.001142
    11  H    0.000425   0.002014   0.000118  -0.000028   0.000935   0.000684
    12  C    2.040473  -0.445023  -0.840017  -0.313918  -5.136959   0.161919
    13  C    7.082663  -0.389389  -0.049432   0.347138  -0.106029   0.053000
    14  C   -0.389389   8.565758  -0.349758   0.048113  -1.087482   0.365726
    15  C   -0.049432  -0.349758   7.971473  -0.103479  -1.368612  -0.002979
    16  H    0.347138   0.048113  -0.103479   0.645382   0.086090  -0.002121
    17  C   -0.106029  -1.087482  -1.368612   0.086090  11.821310  -0.185411
    18  H    0.053000   0.365726  -0.002979  -0.002121  -0.185411   0.654371
    19  C   -0.110189  -0.567509   0.581006  -0.054182  -0.429237   0.007290
    20  H    0.019302   0.013623   0.305443  -0.017343   0.026646   0.001833
    21  H    0.012851   0.014601  -0.001820   0.002548   0.389055  -0.017865
    22  C    0.218793   1.141789   0.007774  -0.034502   1.293257  -0.103805
    23  C   -0.116423   0.677642  -0.020226   0.079661   0.817674  -0.007611
    24  C   -0.098789  -0.939430   0.041903  -0.018590  -0.791421   0.058328
    25  C   -0.055064  -0.179079   0.063497   0.037466   0.069723  -0.002151
    26  C    0.008524  -0.369163   0.000910  -0.008418  -0.494341  -0.001268
    27  H   -0.022241   0.017530   0.007723   0.000670   0.028763  -0.021949
    28  C   -0.022553  -0.016592  -0.003437  -0.001680   0.014175   0.002751
    29  H    0.000290   0.000591  -0.000057   0.000270  -0.000412  -0.000073
    30  H    0.002999   0.000871   0.000305   0.000225  -0.002101   0.001182
    31  H   -0.000872   0.000785  -0.000197  -0.000063   0.001179  -0.000021
    32  O    0.018554  -0.025544   0.031235  -0.002184  -0.314313  -0.003928
    33  H    0.017538  -0.004570  -0.119469   0.001148   0.073486   0.000659
    34  O    0.000206   0.001061   0.000011   0.000002   0.000086   0.000663
    35  H   -0.000001  -0.000054  -0.000028   0.000011  -0.000106  -0.000032
    36  O   -0.042203   0.008229   0.042402   0.018750   0.017745   0.002174
    37  C    0.043061  -0.283675   0.019583  -0.036007  -0.105634  -0.005089
    38  O    0.019731   0.000641   0.007300  -0.010416  -0.000381   0.000075
              19         20         21         22         23         24
     1  C   -1.782742   0.026366   0.053101   1.478925  -3.470921  -0.559269
     2  C   -0.304404  -0.004396   0.001741  -4.663865  -0.837723   3.577268
     3  C    0.035543  -0.000147  -0.001613   1.842859   0.237896  -1.403777
     4  C   -0.040560   0.000252   0.001796  -2.063755  -0.914470   1.103293
     5  C    0.145962  -0.002770  -0.005746  -0.891676  -0.324698   0.442895
     6  H    0.002287  -0.000133  -0.000753  -0.060498  -0.029856   0.030726
     7  C   -0.024765   0.000265   0.001237   1.316827   0.769488  -1.263386
     8  H   -0.000448  -0.000087   0.000090  -0.066028  -0.027391   0.083919
     9  C   -0.005843  -0.000279   0.001616  -0.087730  -0.039943   0.017136
    10  H    0.001537   0.000053  -0.000182  -0.007677   0.000999   0.003150
    11  H    0.000001   0.000001  -0.000040   0.001730  -0.001583  -0.004888
    12  C    1.445903  -0.009751  -0.047938  -5.100108  -8.825308   3.740075
    13  C   -0.110189   0.019302   0.012851   0.218793  -0.116423  -0.098789
    14  C   -0.567509   0.013623   0.014601   1.141789   0.677642  -0.939430
    15  C    0.581006   0.305443  -0.001820   0.007774  -0.020226   0.041903
    16  H   -0.054182  -0.017343   0.002548  -0.034502   0.079661  -0.018590
    17  C   -0.429237   0.026646   0.389055   1.293257   0.817674  -0.791421
    18  H    0.007290   0.001833  -0.017865  -0.103805  -0.007611   0.058328
    19  C    7.778852  -0.089338  -0.156516  -0.446409  -0.383414   0.285389
    20  H   -0.089338   0.608935  -0.002173   0.011252   0.001304  -0.009450
    21  H   -0.156516  -0.002173   0.596264   0.008866   0.014062  -0.005275
    22  C   -0.446409   0.011252   0.008866  23.501589   5.092291  -8.597438
    23  C   -0.383414   0.001304   0.014062   5.092291  29.309516  -8.191296
    24  C    0.285389  -0.009450  -0.005275  -8.597438  -8.191296  16.922140
    25  C   -0.021511  -0.004528   0.001826  -3.797708  -7.294919   5.089290
    26  C    0.090945   0.000737  -0.004543  -3.215937  -1.886544  -0.825689
    27  H   -0.011062   0.000018   0.000064   0.060226   0.106794   0.339455
    28  C   -0.006550  -0.000154   0.000437   0.097451  -0.148443   0.008455
    29  H    0.000445  -0.000042  -0.000006   0.091671  -0.032171   0.029948
    30  H    0.000118   0.000022  -0.000062  -0.050249   0.155154  -0.022257
    31  H   -0.000191  -0.000007   0.000018   0.052136  -0.059888   0.056131
    32  O    0.226707  -0.019748  -0.025799   0.005735   0.001185  -0.003694
    33  H    0.041717  -0.003181   0.000735  -0.003952  -0.001442   0.002294
    34  O   -0.000010   0.000000   0.000013   0.001926  -0.000195  -0.001821
    35  H   -0.000007  -0.000002   0.000004  -0.002651  -0.000007   0.001151
    36  O   -0.011530   0.000551   0.000381   0.133624   0.302447  -0.316481
    37  C   -0.068099   0.008158   0.003600  -0.839940   0.961816  -2.656490
    38  O    0.002172   0.000030  -0.000029   0.027065  -0.010993   0.048621
              25         26         27         28         29         30
     1  C   -1.986898   1.174833  -0.069164  -0.904858   0.058341  -0.024264
     2  C    1.441386  -0.649521   0.078105   0.321621   0.006740  -0.030037
     3  C   -0.308638  -0.052795   0.010205  -0.033132   0.000364   0.002614
     4  C    0.212154   0.145844   0.030940  -0.047987   0.004789  -0.003426
     5  C    0.067583   0.002737   0.001160   0.008200   0.000679  -0.001442
     6  H    0.002196   0.002301   0.002146   0.000096  -0.000028  -0.000151
     7  C   -0.244711  -0.118933   0.001168  -0.020425  -0.002265   0.004118
     8  H   -0.005405   0.047067  -0.014262   0.018910  -0.001601  -0.000529
     9  C    0.022230  -0.032655   0.013348   0.005826   0.000266  -0.001447
    10  H    0.000074   0.000161  -0.000539   0.000102  -0.000002   0.000003
    11  H   -0.002880   0.002903   0.000494  -0.001297   0.000052   0.000166
    12  C   -0.783796   2.400193  -0.190808  -0.356671   0.015900   0.001329
    13  C   -0.055064   0.008524  -0.022241  -0.022553   0.000290   0.002999
    14  C   -0.179079  -0.369163   0.017530  -0.016592   0.000591   0.000871
    15  C    0.063497   0.000910   0.007723  -0.003437  -0.000057   0.000305
    16  H    0.037466  -0.008418   0.000670  -0.001680   0.000270   0.000225
    17  C    0.069723  -0.494341   0.028763   0.014175  -0.000412  -0.002101
    18  H   -0.002151  -0.001268  -0.021949   0.002751  -0.000073   0.001182
    19  C   -0.021511   0.090945  -0.011062  -0.006550   0.000445   0.000118
    20  H   -0.004528   0.000737   0.000018  -0.000154  -0.000042   0.000022
    21  H    0.001826  -0.004543   0.000064   0.000437  -0.000006  -0.000062
    22  C   -3.797708  -3.215937   0.060226   0.097451   0.091671  -0.050249
    23  C   -7.294919  -1.886544   0.106794  -0.148443  -0.032171   0.155154
    24  C    5.089290  -0.825689   0.339455   0.008455   0.029948  -0.022257
    25  C   15.436629  -0.855768   0.067787   0.843717   0.301486  -0.032317
    26  C   -0.855768  10.501504  -0.159999  -0.640654  -0.018328   0.413393
    27  H    0.067787  -0.159999   0.651811  -0.065914   0.003236  -0.015864
    28  C    0.843717  -0.640654  -0.065914   7.058678  -0.083016  -0.152873
    29  H    0.301486  -0.018328   0.003236  -0.083016   0.585409  -0.003910
    30  H   -0.032317   0.413393  -0.015864  -0.152873  -0.003910   0.587941
    31  H   -0.005995  -0.144162  -0.002240   0.465922  -0.009753  -0.015777
    32  O    0.000249  -0.001071   0.000801  -0.000117   0.000003  -0.000004
    33  H    0.000187   0.000238  -0.000002  -0.000006   0.000004  -0.000002
    34  O   -0.000103  -0.000386   0.000030  -0.000007   0.000001  -0.000003
    35  H    0.000222  -0.000132   0.000024   0.000037   0.000000  -0.000007
    36  O   -0.049996  -0.068395  -0.002598   0.077398  -0.004684  -0.000341
    37  C   -2.233536   0.865095  -0.022071  -0.320064  -0.112642   0.033530
    38  O    0.087284  -0.021618   0.000361   0.035332  -0.002265  -0.000326
              31         32         33         34         35         36
     1  C   -0.016193   0.019374  -0.007407   0.012471  -0.002159   0.354141
     2  C    0.011859   0.002769   0.000139   0.042227   0.000634  -0.337858
     3  C   -0.001344   0.000351  -0.000231   0.023181   0.009527   0.051446
     4  C   -0.002318   0.000293  -0.000299  -0.022410   0.007858  -0.040837
     5  C    0.000100  -0.000340   0.000636   0.073152  -0.120464   0.001886
     6  H   -0.000007   0.000284   0.000036  -0.002814   0.002198  -0.006711
     7  C   -0.001713   0.000001  -0.000127  -0.368704   0.077414   0.052809
     8  H   -0.000191   0.000013  -0.000014  -0.002857   0.000011   0.002311
     9  C    0.000215  -0.000016  -0.000008   0.248306   0.031846   0.003142
    10  H   -0.000002   0.000006   0.000007  -0.018609  -0.002666   0.000035
    11  H   -0.000015  -0.000001   0.000000  -0.027929   0.001724  -0.001012
    12  C   -0.009916   0.040532   0.004118   0.000778  -0.001396  -0.466211
    13  C   -0.000872   0.018554   0.017538   0.000206  -0.000001  -0.042203
    14  C    0.000785  -0.025544  -0.004570   0.001061  -0.000054   0.008229
    15  C   -0.000197   0.031235  -0.119469   0.000011  -0.000028   0.042402
    16  H   -0.000063  -0.002184   0.001148   0.000002   0.000011   0.018750
    17  C    0.001179  -0.314313   0.073486   0.000086  -0.000106   0.017745
    18  H   -0.000021  -0.003928   0.000659   0.000663  -0.000032   0.002174
    19  C   -0.000191   0.226707   0.041717  -0.000010  -0.000007  -0.011530
    20  H   -0.000007  -0.019748  -0.003181   0.000000  -0.000002   0.000551
    21  H    0.000018  -0.025799   0.000735   0.000013   0.000004   0.000381
    22  C    0.052136   0.005735  -0.003952   0.001926  -0.002651   0.133624
    23  C   -0.059888   0.001185  -0.001442  -0.000195  -0.000007   0.302447
    24  C    0.056131  -0.003694   0.002294  -0.001821   0.001151  -0.316481
    25  C   -0.005995   0.000249   0.000187  -0.000103   0.000222  -0.049996
    26  C   -0.144162  -0.001071   0.000238  -0.000386  -0.000132  -0.068395
    27  H   -0.002240   0.000801  -0.000002   0.000030   0.000024  -0.002598
    28  C    0.465922  -0.000117  -0.000006  -0.000007   0.000037   0.077398
    29  H   -0.009753   0.000003   0.000004   0.000001   0.000000  -0.004684
    30  H   -0.015777  -0.000004  -0.000002  -0.000003  -0.000007  -0.000341
    31  H    0.585367   0.000000   0.000000   0.000000   0.000001   0.001035
    32  O    0.000000   8.384775   0.217801   0.000000   0.000000   0.000014
    33  H    0.000000   0.217801   0.380887   0.000000   0.000000  -0.000050
    34  O    0.000000   0.000000   0.000000   8.375367   0.217173   0.000110
    35  H    0.000001   0.000000   0.000000   0.217173   0.379823  -0.000064
    36  O    0.001035   0.000014  -0.000050   0.000110  -0.000064   8.319711
    37  C   -0.040771   0.000236  -0.000732   0.000604  -0.000692   0.248386
    38  O    0.001339   0.000000   0.000005  -0.000001   0.000002  -0.085935
              37         38
     1  C   -0.062060  -0.192693
     2  C   -2.355931   0.036682
     3  C    0.641143  -0.017526
     4  C   -0.230738   0.010196
     5  C   -0.100409  -0.003021
     6  H   -0.027862   0.000536
     7  C    0.358887   0.002974
     8  H    0.004476  -0.001454
     9  C   -0.014525   0.000694
    10  H   -0.000619  -0.000018
    11  H    0.001890   0.000045
    12  C    0.426157   0.008617
    13  C    0.043061   0.019731
    14  C   -0.283675   0.000641
    15  C    0.019583   0.007300
    16  H   -0.036007  -0.010416
    17  C   -0.105634  -0.000381
    18  H   -0.005089   0.000075
    19  C   -0.068099   0.002172
    20  H    0.008158   0.000030
    21  H    0.003600  -0.000029
    22  C   -0.839940   0.027065
    23  C    0.961816  -0.010993
    24  C   -2.656490   0.048621
    25  C   -2.233536   0.087284
    26  C    0.865095  -0.021618
    27  H   -0.022071   0.000361
    28  C   -0.320064   0.035332
    29  H   -0.112642  -0.002265
    30  H    0.033530  -0.000326
    31  H   -0.040771   0.001339
    32  O    0.000236   0.000000
    33  H   -0.000732   0.000005
    34  O    0.000604  -0.000001
    35  H   -0.000692   0.000002
    36  O    0.248386  -0.085935
    37  C   11.046321   0.242137
    38  O    0.242137   8.369580
 Mulliken charges:
               1
     1  C   -0.448806
     2  C    0.230241
     3  C   -0.222504
     4  C   -0.149542
     5  C    0.189899
     6  H    0.151675
     7  C   -0.276776
     8  H    0.135106
     9  C   -0.018534
    10  H    0.145624
    11  H    0.162546
    12  C    0.474658
    13  C   -0.058975
    14  C   -0.458615
    15  C   -0.002421
    16  H    0.175515
    17  C   -0.022590
    18  H    0.162329
    19  C   -0.131359
    20  H    0.138738
    21  H    0.165453
    22  C   -0.351859
    23  C    0.097535
    24  C   -0.172128
    25  C    0.120020
    26  C   -0.087062
    27  H    0.175852
    28  C   -0.132679
    29  H    0.170772
    30  H    0.153418
    31  H    0.135548
    32  O   -0.554161
    33  H    0.399860
    34  O   -0.551521
    35  H    0.400806
    36  O   -0.203822
    37  C    0.612504
    38  O   -0.554744
 Sum of Mulliken charges =   0.00000
 Mulliken charges with hydrogens summed into heavy atoms:
               1
     1  C   -0.448806
     2  C    0.230241
     3  C   -0.070829
     4  C   -0.014436
     5  C    0.335522
     7  C   -0.114230
     9  C   -0.018534
    12  C    0.474658
    13  C    0.116540
    14  C   -0.296286
    15  C    0.136317
    17  C    0.142863
    19  C   -0.131359
    22  C   -0.351859
    23  C    0.097535
    24  C    0.003725
    25  C    0.290792
    26  C    0.066357
    28  C    0.002868
    32  O   -0.154302
    34  O   -0.150715
    36  O   -0.203822
    37  C    0.612504
    38  O   -0.554744
 Electronic spatial extent (au):  <R**2>=           7704.5870
 Charge=              0.0000 electrons
 Dipole moment (field-independent basis, Debye):
    X=             -1.7043    Y=             -2.3504    Z=             -5.0536  Tot=              5.8282
 Quadrupole moment (field-independent basis, Debye-Ang):
   XX=           -125.9902   YY=           -124.0639   ZZ=           -147.7437
   XY=             -8.7876   XZ=             -5.5568   YZ=            -25.6712
 Traceless Quadrupole moment (field-independent basis, Debye-Ang):
   XX=              6.6091   YY=              8.5354   ZZ=            -15.1445
   XY=             -8.7876   XZ=             -5.5568   YZ=            -25.6712
 Octapole moment (field-independent basis, Debye-Ang**2):
  XXX=           -102.3135  YYY=              5.6811  ZZZ=            -69.8418  XYY=             48.2789
  XXY=            -70.1411  XXZ=             75.8726  XZZ=            -10.8617  YZZ=            -31.6320
  YYZ=            -28.6569  XYZ=              0.4883
 Hexadecapole moment (field-independent basis, Debye-Ang**3):
 XXXX=          -4411.4331 YYYY=          -3714.7219 ZZZZ=          -1453.0612 XXXY=             70.1197
 XXXZ=           -142.6051 YYYX=           -349.2422 YYYZ=           -242.2622 ZZZX=              2.4906
 ZZZY=           -170.6024 XXYY=          -1255.2176 XXZZ=          -1039.3491 YYZZ=           -953.9871
 XXYZ=           -207.9107 YYXZ=             27.9885 ZZXY=             -9.8034
 N-N= 1.935225989136D+03 E-N=-6.362835743388D+03  KE= 1.061146903526D+03
 Leave Link  601 at Mon Jan  4 01:05:16 2021, MaxMem=    33554432 cpu:         0.4
 (Enter /opt/QChem/g09/l9999.exe)
 1\1\GINC-NB-38\SP\RB3LYP TD-FC\6-31++G(d,p)\C20H14O4\STUDENT\04-Jan-20
 21\0\\#p B3LYP/6-31++g** td=(singlet,nstates=10) scrf(cpcm,solvent=wat
 er) scf=tight geom=AllCheckpoint\\Phenolphthalein pH6 structure\\0,1\C
 ,0,-0.2813544904,0.0955670355,0.1894246586\C,0,-0.2629477089,0.0608307
 793,1.7133602778\C,0,0.7867046505,0.7006259412,2.3977044774\C,0,-1.210
 7210648,-0.6555886624,2.4636019958\C,0,0.8865176248,0.6374405211,3.787
 5272131\H,0,1.5347907996,1.252178311,1.8393106575\C,0,-1.125591512,-0.
 7198512796,3.8558355718\H,0,-2.0268994873,-1.1660169269,1.9670327415\C
 ,0,-0.0763566539,-0.0734897342,4.5183376782\H,0,1.7046846886,1.1363521
 396,4.2975673823\H,0,-1.8612906594,-1.2651618311,4.4352613224\C,0,-0.0
 114472271,1.4800441114,-0.4045747493\C,0,0.7931469405,1.6477432226,-1.
 5412434123\C,0,-0.6435634565,2.6107260731,0.1458828072\C,0,0.969966604
 2,2.9101018297,-2.1159266758\H,0,1.2971141586,0.7941596141,-1.97631616
 41\C,0,-0.4800491982,3.8727714582,-0.4251680455\H,0,-1.2612542405,2.50
 99431253,1.0314195565\C,0,0.3292343864,4.0230419688,-1.5582241027\H,0,
 1.6041682728,3.0218539546,-2.9900036124\H,0,-0.9650418794,4.7444264447
 ,-0.0015559327\C,0,-1.4936634116,-0.5658746595,-0.4652523062\C,0,-1.10
 17161173,-1.7237639639,-1.1457972158\C,0,-2.827606498,-0.1594027387,-0
 .4826935327\C,0,-2.0139836378,-2.51422042,-1.8494629804\C,0,-3.7522622
 944,-0.9470395817,-1.1848715134\H,0,-3.1510819623,0.7412259435,0.02656
 6888\C,0,-3.3532926984,-2.1139687559,-1.861569949\H,0,-1.685785124,-3.
 4063522797,-2.3711980704\H,0,-4.7946184175,-0.6479587386,-1.2084161747
 \H,0,-4.0898989577,-2.7015773673,-2.3977244467\O,0,0.4574601945,5.3070
 313497,-2.0762899032\H,0,1.0385478324,5.3310562444,-2.8617027279\O,0,-
 0.0450774363,-0.1730135179,5.9032219402\H,0,0.7150777362,0.3039100546,
 6.2904522414\O,0,0.84376962,-0.8347010145,-0.2582922501\C,0,0.34635289
 89,-1.9080022484,-1.0004395144\O,0,1.0900580232,-2.7999440009,-1.42044
 16815\\Version=AS64L-G09RevD.01\State=1-A\HF=-1071.5491061\RMSD=9.222e
 -09\PG=C01 [X(C20H14O4)]\\@


 I CLAIM NOT TO HAVE CONTROLLED EVENTS,
 BUT CONFESS PLAINLY THAT EVENTS HAVE CONTROLLED ME.

                                         A. LINCOLN
 Job cpu time:       0 days  7 hours 26 minutes 45.9 seconds.
 File lengths (MBytes):  RWF=    796 Int=      0 D2E=      0 Chk=    110 Scr=      1
 Normal termination of Gaussian 09 at Mon Jan  4 01:05:19 2021.
